 &FCI NORB= 7,NELEC= 10,MS2= 0,
  ORBSYM=1,1,1,1,2,3,3,
  ISYM=1,
 /
  4.7434533171556730E+00   1   1   1   1
  4.1290974162490696E-01   2   1   1   1
  5.7358561709666592E-02   2   1   2   1
  1.0026477975353274E+00   2   2   1   1
  1.2057272160663549E-02   2   2   2   1
  7.3508599254500129E-01   2   2   2   2
  1.8840033374920459E-01   3   1   1   1
  2.2381880848681149E-02   3   1   2   1
  1.7620395803187409E-02   3   1   2   2
  2.8968465108614908E-02   3   1   3   1
  1.1672110055301139E-01   3   2   1   1
  9.6234657807523667E-03   3   2   2   1
 -1.6029225883701266E-02   3   2   2   2
 -1.9123074232399926E-02   3   2   3   1
  1.1991912227313198E-01   3   2   3   2
  1.0223091437588432E+00   3   3   1   1
  1.4574496438935276E-02   3   3   2   1
  6.7972462802307043E-01   3   3   2   2
 -1.2391608489193094E-02   3   3   3   1
  1.0492020957441522E-01   3   3   3   2
  8.1298568974929930E-01   3   3   3   3
  2.5332831138492806E-01   4   1   1   1
  3.8041332160031464E-02   4   1   2   1
  2.4705804798542171E-04   4   1   2   2
  1.8294532259382689E-03   4   1   3   1
  2.0001407281730738E-02   4   1   3   2
  2.0441350727381215E-02   4   1   3   3
  3.3645439659599194E-02   4   1   4   1
  3.2274772138554997E-01   4   2   1   1
  6.8476121001589474E-03   4   2   2   1
  1.4623687842736333E-01   4   2   2   2
  1.8717248744716662E-02   4   2   3   1
 -1.8071983028331098E-02   4   2   3   2
  9.8009743787221743E-02   4   2   3   3
 -5.5376439270666961E-03   4   2   4   1
  1.0447493656093809E-01   4   2   4   2
 -1.9919717039276494E-01   4   3   1   1
 -1.6703298074216000E-03   4   3   2   1
 -8.4997095632170214E-02   4   3   2   2
 -2.9626103583265816E-03   4   3   3   1
 -2.3598795682221306E-02   4   3   3   2
 -1.1350670869860344E-01   4   3   3   3
  4.6315409549891468E-04   4   3   4   1
 -5.9567387497585382E-02   4   3   4   2
  5.8617017817604075E-02   4   3   4   3
  8.1135433846605642E-01   4   4   1   1
  6.7634359314270240E-03   4   4   2   1
  6.2298344233990843E-01   4   4   2   2
  2.2364258229261205E-02   4   4   3   1
 -6.1930983169576487E-02   4   4   3   2
  5.5037656270318758E-01   4   4   3   3
 -7.9719012080477630E-03   4   4   4   1
  9.7849163206135015E-02   4   4   4   2
 -4.1948874885934295E-02   4   4   4   3
  6.0106591670550946E-01   4   4   4   4
  1.1153265865244670E+00   5   5   1   1
  1.1551435799629292E-02   5   5   2   1
  7.4681589484150890E-01   5   5   2   2
  5.2370345094523846E-03   5   5   3   1
  6.2402063779334938E-02   5   5   3   2
  7.4165125688851230E-01   5   5   3   3
  6.4986914003464791E-03   5   5   4   1
  1.6386622526150674E-01   5   5   4   2
 -1.0312462583599247E-01   5   5   4   3
  5.9325447070835446E-01   5   5   4   4
  8.8015909337504561E-01   5   5   5   5
  8.1826669027212351E-01   6   6   1   1
  4.3449314788379274E-03   6   6   2   1
  6.5865773155342167E-01   6   6   2   2
  6.8215623233079115E-03   6   6   3   1
 -7.9744497119310365E-03   6   6   3   2
  6.1248311467210081E-01   6   6   3   3
  4.0729982710457913E-05   6   6   4   1
  8.0114506554086917E-02   6   6   4   2
 -4.1209869984265041E-02   6   6   4   3
  5.7964073114767944E-01   6   6   4   4
  6.4097975592201839E-01   6   6   5   5
  6.5038598637280542E-01   6   6   6   6
  3.5962670736051927E-01   7   6   1   1
  7.8391871548629428E-03   7   6   2   1
  1.2849625215434227E-01   7   6   2   2
 -1.1746622445233564E-03   7   6   3   1
  7.4602652760963228E-02   7   6   3   2
  1.6586940682978815E-01   7   6   3   3
  7.5651939652864042E-03   7   6   4   1
  7.8945238345058441E-02   7   6   4   2
 -6.9371337755429224E-02   7   6   4   3
  3.5591801749198265E-02   7   6   4   4
  1.8464820592102676E-01   7   6   5   5
  9.1668587490663672E-02   7   6   6   6
  1.4992006520778894E-01   7   6   7   6
  8.8123756819188626E-01   7   7   1   1
  9.6645370031739793E-03   7   7   2   1
  6.3133656115806491E-01   7   7   2   2
  4.3082058653075017E-03   7   7   3   1
  1.0967431303828323E-02   7   7   3   2
  6.1904530622677045E-01   7   7   3   3
  5.7612145968294476E-03   7   7   4   1
  7.1773610294407986E-02   7   7   4   2
 -3.7421609380278331E-02   7   7   4   3
  5.7203126829265494E-01   7   7   4   4
  6.3104936919275911E-01   7   7   5   5
  6.2268846372883613E-01   7   7   6   6
  9.1932783788559513E-02   7   7   7   6
  6.2859749405003784E-01   7   7   7   7
  2.9996885217148134E-02   6   5   6   5
  2.3520255183074532E-02   7   5   6   5
  2.3944682714638836E-02   7   5   7   5
  2.6081885212211213E-02   5   1   5   1
 -3.2228318636138321E-02   5   2   5   1
  1.4268384456825675E-01   5   2   5   2
 -1.3908341851496871E-02   5   3   5   1
  4.7386598792365023E-02   5   3   5   2
  5.8521787710763870E-02   5   3   5   3
 -1.6758357107990764E-02   5   4   5   1
  6.1792114491648925E-02   5   4   5   2
  4.6696565625251344E-03   5   4   5   3
  4.0363653516284688E-02   5   4   5   4
  1.1304054412638992E-02   6   1   6   1
 -1.8353036011589489E-02   6   2   6   1
  1.4935208644405751E-01   6   2   6   2
 -3.8764155076282734E-03   6   3   6   1
 -1.5425194707603573E-02   6   3   6   2
  4.4833239298769700E-02   6   3   6   3
 -3.3881365441631199E-03   6   4   6   1
 -4.0229529028695837E-02   6   4   6   2
  2.4650321771935102E-02   6   4   6   3
  6.8559221856422492E-02   6   4   6   4
  1.5845034578306254E-02   7   1   6   1
 -2.3772646161139263E-02   7   1   6   2
 -5.6423988442592535E-03   7   1   6   3
 -4.2409066795316827E-03   7   1   6   4
  2.2284790418537322E-02   7   1   7   1
 -1.3490858251807502E-02   7   2   6   1
  3.4307116115748236E-02   7   2   6   2
  3.4803818946394907E-02   7   2   6   3
  3.6933029501076201E-02   7   2   6   4
 -1.7856928027189349E-02   7   2   7   1
  5.9429386341205453E-02   7   2   7   2
 -1.0204745701244187E-02   7   3   6   1
  7.7837757744386796E-02   7   3   6   2
  8.4668477412141053E-03   7   3   6   3
 -4.0089457612907546E-02   7   3   6   4
 -1.3968105552828925E-02   7   3   7   1
  1.6154015331195204E-02   7   3   7   2
  6.8161915091589254E-02   7   3   7   3
 -9.9026807103993666E-03   7   4   6   1
  1.0247912974422416E-01   7   4   6   2
 -4.1085312510258383E-02   7   4   6   3
 -6.2979667633773065E-02   7   4   6   4
 -1.3034969328841866E-02   7   4   7   1
 -1.2449715438092104E-02   7   4   7   2
  5.6628606563344203E-02   7   4   7   3
  1.1571317638894790E-01   7   4   7   4
 -3.2773032524645323E+01   1   1   0   0
 -5.5561317010046740E-01   2   1   0   0
 -7.7419447317827537E+00   2   2   0   0
 -2.4352800211045555E-01   3   1   0   0
 -3.7684512799729086E-01   3   2   0   0
 -7.1332734936396891E+00   3   3   0   0
 -3.2404546361201847E-01   4   1   0   0
 -1.4397081504630522E+00   4   2   0   0
  9.8364168092023041E-01   4   3   0   0
 -5.3447319261595450E+00   4   4   0   0
 -7.5087200703289296E+00   5   5   0   0
 -6.5249830647055465E+00   6   6   0   0
 -1.6868104784032143E+00   7   6   0   0
 -5.6336597239292621E+00   7   7   0   0
  9.7794061444134091E+00   0   0   0   0