 &FCI NORB=28,NELEC=12,MS2=0,
  ORBSYM= 1,1,1,1,1,1,1,1,1,1,1,1,1,1,1,1,1,1,1,1,1,1,1,1,1,1,1,1,
  ISYM=1
 &END
 5.3758810892435900e+00    1    1    1    1
 1.7729232482849968e-03    2    1    1    1
 8.1717111210694396e-07    2    1    2    1
 3.3739767929730519e-01    2    2    1    1
-1.8099103129782745e-04    2    2    2    1
 1.6520873914736363e+00    2    2    2    2
 3.7205900040723600e-01    3    1    1    1
 8.6280628146224861e-05    3    1    2    1
 3.5348414375053084e-03    3    1    2    2
 5.9199021983141878e-02    3    1    3    1
 1.4615729586925853e-03    3    2    1    1
-1.5003168384048997e-06    3    2    2    1
-1.7157465144416344e-02    3    2    2    2
 1.3437024180823769e-04    3    2    3    1
 5.3549480789831787e-04    3    2    3    2
 1.2335868993346888e+00    3    3    1    1
 4.0417866389214199e-04    3    3    2    1
 2.8072989992091563e-01    3    3    2    2
-1.3171020539681928e-02    3    3    3    1
 2.5143081117704022e-04    3    3    3    2
 1.0312738703374142e+00    3    3    3    3
-3.2308787833574598e-01    4    1    1    1
-1.5324628944677474e-04    4    1    2    1
 3.8172324555935887e-03    4    1    2    2
-2.0423308097560523e-02    4    1    3    1
 1.3689142375703975e-04    4    1    3    2
-3.6496797002070758e-02    4    1    3    3
 5.1168363807839394e-02    4    1    4    1
 1.1216616845973288e-02    4    2    1    1
 1.6521463611949834e-07    4    2    2    1
-6.6887419796822750e-02    4    2    2    2
 2.8719599698033587e-04    4    2    3    1
 1.7922036981919882e-03    4    2    3    2
 7.0403402108196221e-03    4    2    3    3
 3.6280718811045011e-04    4    2    4    1
 6.2451220983558518e-03    4    2    4    2
-3.7480501975285262e-02    4    3    1    1
-8.9990155079822306e-06    4    3    2    1
 7.7985086889811039e-03    4    3    2    2
-4.8651251059964309e-03    4    3    3    1
-8.0198268331241074e-06    4    3    3    2
 4.8664374024534928e-03    4    3    3    3
-2.5861528422003034e-04    4    3    4    1
 3.4424997153012445e-05    4    3    4    2
 1.6283337660783961e-02    4    3    4    3
 1.1886730961286296e+00    4    4    1    1
 2.1309555713074546e-04    4    4    2    1
 4.2579420590578165e-01    4    4    2    2
 3.4378577820632514e-02    4    4    3    1
 3.4011831277478209e-03    4    4    3    2
 6.7869029423369676e-01    4    4    3    3
 1.7388989593380654e-02    4    4    4    1
 1.5311133037100926e-02    4    4    4    2
-1.9593294318744896e-02    4    4    4    3
 1.0019195215108487e+00    4    4    4    4
 1.1410296076124317e-12    5    1    1    1
 4.1779578112402239e-16    5    1    2    1
-2.8311874339948557e-15    5    1    2    2
 7.2709101532396928e-14    5    1    3    1
-3.0534596227258704e-16    5    1    3    2
 1.2575866039825955e-13    5    1    3    3
-6.0005119302468169e-14    5    1    4    1
-3.4455436429784912e-17    5    1    4    2
-9.4157126822126980e-14    5    1    4    3
 1.0466810898048770e-13    5    1    4    4
 3.3847586996389852e-02    5    1    5    1
-2.0894256683097273e-14    5    2    1    1
 2.8642652112197576e-18    5    2    2    1
 1.1362814611090735e-13    5    2    2    2
-6.3020741219724831e-16    5    2    3    1
-3.4838740584069656e-15    5    2    3    2
-1.2192932663277063e-14    5    2    3    3
-2.0116718433862066e-16    5    2    4    1
-9.4938351059899768e-15    5    2    4    2
-3.8929970680814221e-15    5    2    4    3
-1.9279187688204023e-14    5    2    4    4
 1.5495869360937788e-04    5    2    5    1
 3.9960324595622685e-04    5    2    5    2
 1.8220291329274878e-13    5    3    1    1
 1.7296221691543713e-16    5    3    2    1
-8.6080554587695176e-14    5    3    2    2
 1.7375687517273543e-14    5    3    3    1
-9.4739479909467278e-16    5    3    3    2
 2.3528430068004670e-14    5    3    3    3
-9.7125191119071662e-14    5    3    4    1
-4.9049305569256802e-15    5    3    4    2
 3.2660160910736356e-13    5    3    4    3
-3.6163390308724441e-13    5    3    4    4
-2.6242135515715085e-02    5    3    5    1
-6.3996034214677171e-04    5    3    5    2
 1.0651043212893453e-01    5    3    5    3
-1.1913014505907691e-13    5    4    1    1
 1.6919372633277709e-16    5    4    2    1
-1.8623600426093472e-13    5    4    2    2
-9.4328704622691956e-14    5    4    3    1
-6.2454743478012089e-15    5    4    3    2
 4.1684553987858096e-13    5    4    3    3
-3.4427303917571901e-16    5    4    4    1
-8.2757563419969249e-15    5    4    4    2
-2.6937870263558455e-13    5    4    4    3
-7.3117628562513153e-14    5    4    4    4
 2.3432963071901299e-02    5    4    5    1
 1.7469185987230801e-03    5    4    5    2
-6.1056939657083129e-02    5    4    5    3
 9.8323446782421914e-02    5    4    5    4
 1.1523284701084535e+00    5    5    1    1
 2.8937442117265395e-04    5    5    2    1
 3.2944677821722013e-01    5    5    2    2
 8.5531735628517902e-03    5    5    3    1
 1.5557355412216844e-03    5    5    3    2
 7.9145654610753957e-01    5    5    3    3
-6.4285896276831548e-03    5    5    4    1
 9.4696554893477346e-03    5    5    4    2
-3.2100694127829864e-02    5    5    4    3
 7.8168811582229258e-01    5    5    4    4
-1.5177931213123827e-13    5    5    5    1
-2.6210578357967878e-14    5    5    5    2
 5.7694737889263722e-13    5    5    5    3
-5.4108660215059621e-13    5    5    5    4
 8.2256466575004028e-01    5    5    5    5
 5.2740868997596929e-13    6    1    1    1
 1.9298627445803499e-16    6    1    2    1
-1.3195058160194384e-15    6    1    2    2
 3.3608792006882967e-14    6    1    3    1
-1.4111139128930279e-16    6    1    3    2
 5.8116197501656875e-14    6    1    3    3
-2.7737488135030875e-14    6    1    4    1
-1.6056420628277310e-17    6    1    4    2
-4.3522358860719020e-14    6    1    4    3
 4.8363145281571736e-14    6    1    4    4
-1.3211638361325407e-11    6    1    5    1
-3.9555234130657865e-13    6    1    5    2
 6.8089449883364354e-11    6    1    5    3
-6.3300601295370359e-11    6    1    5    4
 9.2005682810664294e-15    6    1    5    5
 3.3847586407929502e-02    6    1    6    1
-9.6560462484999702e-15    6    2    1    1
 1.1847800047486191e-18    6    2    2    1
 5.2501405814183425e-14    6    2    2    2
-2.9125381474680809e-16    6    2    3    1
-1.6098953331138882e-15    6    2    3    2
-5.6346001181543626e-15    6    2    3    3
-9.2971304281633797e-17    6    2    4    1
-4.3863156220509917e-15    6    2    4    2
-1.7997435076594253e-15    6    2    4    3
-8.9075857792055059e-15    6    2    4    4
-7.0102933787244212e-13    6    2    5    1
-2.4840975403779872e-12    6    2    5    2
 7.8414772799848871e-12    6    2    5    3
-1.0793646655277877e-11    6    2    5    4
-7.9267688135966459e-15    6    2    5    5
 1.5495868728156848e-04    6    2    6    1
 3.9960320186039266e-04    6    2    6    2
 8.4218170497815289e-14    6    3    1    1
 8.0151167551806054e-17    6    3    2    1
-3.9808472519766251e-14    6    3    2    2
 8.0315673510780732e-15    6    3    3    1
-4.3836556654851998e-16    6    3    3    2
 1.0873522877821125e-14    6    3    3    3
-4.4893937762537238e-14    6    3    4    1
-2.2676717713590729e-15    6    3    4    2
 1.5096667021449415e-13    6    3    4    3
-1.6716719552567062e-13    6    3    4    4
 6.8445391089486456e-11    6    3    5    1
 6.2113504036787424e-12    6    3    5    2
-5.6648595617374142e-10    6    3    5    3
 5.4243001722901324e-10    6    3    5    4
 6.1284638013935893e-14    6    3    5    5
-2.6242134815481911e-02    6    3    6    1
-6.3996029168036787e-04    6    3    6    2
 1.0651042836581497e-01    6    3    6    3
-5.5084339578324846e-14    6    4    1    1
 7.7754178809437680e-17    6    4    2    1
-8.6060236992410227e-14    6    4    2    2
-4.3602682045272849e-14    6    4    3    1
-2.8869252996273553e-15    6    4    3    2
 1.9266969860147056e-13    6    4    3    3
-1.6179512826497750e-16    6    4    4    1
-3.8246475806836126e-15    6    4    4    2
-1.2451714969804596e-13    6    4    4    3
-3.3814774551142085e-14    6    4    4    4
-6.5345079796203754e-11    6    4    5    1
-7.3799576000385877e-12    6    4    5    2
 5.5064557800774843e-10    6    4    5    3
-5.1686066816972362e-10    6    4    5    4
-5.6989919307301877e-14    6    4    5    5
 2.3432962412853232e-02    6    4    6    1
 1.7469185103281834e-03    6    4    6    2
-6.1056935943517382e-02    6    4    6    3
 9.8323443129189295e-02    6    4    6    4
 2.4707010936248487e-11    6    5    1    1
-3.1784962683218951e-14    6    5    2    1
-2.4903486975428838e-11    6    5    2    2
 6.0959816682983780e-12    6    5    3    1
 1.9145862814565979e-12    6    5    3    2
-1.6908493774228138e-10    6    5    3    3
-6.1270026444695447e-12    6    5    4    1
 2.0977435654149374e-13    6    5    4    2
 2.3653370511872231e-10    6    5    4    3
-1.6190677047884994e-10    6    5    4    4
-3.9627569720330065e-14    6    5    5    1
-2.0838086224778288e-15    6    5    5    2
 1.0236259110968892e-13    6    5    5    3
-9.6224006983485667e-14    6    5    5    4
 8.8470238317912549e-11    6    5    5    5
-8.5729213523872620e-14    6    5    6    1
-4.5091768683504857e-15    6    5    6    2
 2.2145701881832355e-13    6    5    6    3
-2.0817879689516545e-13    6    5    6    4
 3.9746741975644886e-02    6    5    6    5
 1.1523284658510338e+00    6    6    1    1
 2.8937441945226704e-04    6    6    2    1
 3.2944677765816743e-01    6    6    2    2
 8.5531734717127928e-03    6    6    3    1
 1.5557355546962930e-03    6    6    3    2
 7.9145654428209700e-01    6    6    3    3
-6.4285895715686103e-03    6    6    4    1
 9.4696554983800790e-03    6    6    4    2
-3.2100692488470479e-02    6    6    4    3
 7.8168811372452796e-01    6    6    4    4
 1.9936722236704753e-14    6    6    5    1
-1.7154704227347435e-14    6    6    5    2
 1.3260243499437388e-13    6    6    5    3
-1.2327735683170302e-13    6    6    5    4
 7.4307118163952179e-01    6    6    5    5
-7.0174993660476743e-14    6    6    6    1
-1.2112524103063347e-14    6    6    6    2
 2.6667932522845285e-13    6    6    6    3
-2.5012104944347764e-13    6    6    6    4
 8.8470284470196746e-11    6    6    6    5
 8.2256466543158291e-01    6    6    6    6
-1.3087741390510253e-12    7    1    1    1
-4.8526597439898673e-16    7    1    2    1
 3.5231939634824727e-15    7    1    2    2
-7.3179209845039408e-14    7    1    3    1
 3.8118952235834235e-16    7    1    3    2
-1.6068435247824487e-13    7    1    3    3
 6.0808761750246742e-14    7    1    4    1
-7.8632762407284885e-17    7    1    4    2
 1.0719595451097925e-13    7    1    4    3
-1.3316791262732572e-13    7    1    4    4
-4.1148213961696135e-02    7    1    5    1
-1.8831639883245120e-04    7    1    5    2
 3.0162906745768617e-02    7    1    5    3
-2.6801795148137440e-02    7    1    5    4
 1.6144620962843790e-13    7    1    5    5
 2.1896230822469704e-11    7    1    6    1
 7.9318119440846741e-13    7    1    6    2
-8.0125197939272179e-11    7    1    6    3
 7.6553655611939073e-11    7    1    6    4
 4.5560501832607466e-14    7    1    6    5
-3.7602743190678135e-14    7    1    6    6
 5.0139894921045390e-02    7    1    7    1
-2.8469374354999666e-14    7    2    1    1
 1.4224736861609167e-17    7    2    2    1
 2.1537531938267118e-13    7    2    2    2
-8.4568476372472864e-16    7    2    3    1
-7.0923596019034843e-15    7    2    3    2
-1.7306760540600185e-14    7    2    3    3
-2.2307058782719134e-16    7    2    4    1
-1.8631697092838123e-14    7    2    4    2
-5.4535408253130742e-15    7    2    4    3
-2.6807617581890920e-14    7    2    4    4
 1.4996586138477577e-04    7    2    5    1
 8.3824551043290118e-04    7    2    5    2
-7.3655691514198885e-04    7    2    5    3
 2.6079706859232221e-03    7    2    5    4
-3.7667315856793797e-14    7    2    5    5
 5.6361959364283138e-13    7    2    6    1
-1.2719124954364211e-12    7    2    6    2
 4.3356091634892428e-12    7    2    6    3
-6.5124200784839336e-13    7    2    6    4
-2.9777933709509742e-15    7    2    6    5
-2.4784408100391841e-14    7    2    6    6
-1.9095386506080077e-04    7    2    7    1
 1.7986574238046252e-03    7    2    7    2
 3.6461742968543653e-14    7    3    1    1
 3.1593709989467329e-17    7    3    2    1
-9.2806341313117088e-14    7    3    2    2
-2.2771572469392978e-14    7    3    3    1
-1.2490953069173509e-15    7    3    3    2
 2.0245425326522202e-13    7    3    3    3
 6.1615247458011869e-14    7    3    4    1
 5.9140604338468764e-17    7    3    4    2
-1.3380117622598152e-13    7    3    4    3
 1.4533964841385860e-13    7    3    4    4
 1.9061762113981740e-02    7    3    5    1
 3.3798822241883791e-04    7    3    5    2
-4.7814575972547686e-02    7    3    5    3
 2.6790819235946974e-02    7    3    5    4
-1.9592671120494558e-13    7    3    5    5
-2.6024494636647905e-11    7    3    6    1
 1.9228257685375620e-12    7    3    6    2
 9.1003351707010913e-11    7    3    6    3
-6.6858973812692296e-11    7    3    6    4
-4.6835645983334449e-14    7    3    6    5
 3.3905658237924548e-14    7    3    6    6
-2.1877314888631115e-02    7    3    7    1
 4.4235789220580066e-04    7    3    7    2
 3.8374887921895723e-02    7    3    7    3
-4.6311658494667851e-14    7    4    1    1
-6.4113453181206835e-19    7    4    2    1
-1.2649360874483634e-13    7    4    2    2
 6.0763435469148775e-14    7    4    3    1
-1.8622336681632975e-15    7    4    3    2
-1.7827317997347472e-13    7    4    3    3
-1.9400823160377833e-15    7    4    4    1
-3.1513380146037896e-16    7    4    4    2
 7.9399710544836108e-14    7    4    4    3
-6.2599420049036222e-14    7    4    4    4
-1.5015949781358446e-02    7    4    5    1
 7.6647572482008196e-04    7    4    5    2
 1.9942369814427461e-02    7    4    5    3
-2.7009612489240505e-02    7    4    5    4
 9.3921770176801364e-14    7    4    5    5
 2.7220997264270132e-11    7    4    6    1
-3.7458289980620017e-12    7    4    6    2
-5.7948880794047218e-11    7    4    6    3
 4.8111845326481785e-11    7    4    6    4
 2.4781525376616496e-14    7    4    6    5
-3.7166026747260865e-14    7    4    6    6
 1.7035861976870730e-02    7    4    7    1
 1.5786941845872531e-03    7    4    7    2
-1.5093542429182793e-02    7    4    7    3
 3.2347928889661315e-02    7    4    7    4
-5.8751788971248631e-01    7    5    1    1
-2.2169803267106433e-04    7    5    2    1
-8.7049061467113118e-04    7    5    2    2
-9.3342587386250394e-03    7    5    3    1
 2.0682301697474013e-05    7    5    3    2
-2.5367233163756170e-01    7    5    3    3
 9.5340312761004048e-03    7    5    4    1
-1.9696638637681178e-03    7    5    4    2
 1.3584283240621706e-02    7    5    4    3
-2.1996350884833610e-01    7    5    4    4
 9.0272947540214279e-14    7    5    5    1
 9.1125471949369103e-16    7    5    5    2
-2.3858567319183334e-13    7    5    5    3
 1.4585371856829108e-13    7    5    5    4
-2.4473949049946109e-01    7    5    5    5
-1.3538833299787461e-14    7    5    6    1
 1.8282203556674283e-15    7    5    6    2
-3.3079932405547916e-14    7    5    6    3
 7.8643370945127617e-15    7    5    6    4
-2.4442554981429256e-12    7    5    6    5
-2.1760856683194688e-01    7    5    6    6
-9.2703527960573938e-14    7    5    7    1
-3.2870761043269940e-15    7    5    7    2
 1.2751704248179586e-13    7    5    7    3
-1.2975657597781655e-13    7    5    7    4
 1.8171505509786434e-01    7    5    7    5
 2.4334055275571310e-10    7    6    1    1
 1.1832242213799699e-13    7    6    2    1
-2.7526049347693046e-12    7    6    2    2
-9.6359564348429788e-13    7    6    3    1
 7.6067330495333352e-13    7    6    3    2
 1.4187654725205975e-10    7    6    3    3
 2.7759032094812501e-12    7    6    4    1
 1.2419235840168459e-12    7    6    4    2
-4.2904683728981573e-11    7    6    4    3
 1.2584148232944445e-10    7    6    4    4
 2.6440356003887747e-14    7    6    5    1
-5.5949034095083168e-16    7    6    5    2
-3.8647519455960660e-14    7    6    5    3
 2.7676143804912797e-14    7    6    5    4
 9.1123842285638725e-11    7    6    5    5
 4.9773431404602094e-14    7    6    6    1
-2.6309875695644788e-15    7    6    6    2
-2.3681762582109933e-14    7    6    6    3
 1.3954150115647058e-14    7    6    6    4
-1.3565461129539011e-02    7    6    6    5
 1.0000738999761286e-10    7    6    6    6
-3.0090588888640137e-14    7    6    7    1
-1.2990515783841555e-15    7    6    7    2
 2.6664521013691316e-14    7    6    7    3
-2.3076109080419596e-14    7    6    7    4
-5.9578047464675410e-11    7    6    7    5
 1.8162042049637152e-02    7    6    7    6
 1.0453122976223566e+00    7    7    1    1
 2.4757937114735319e-04    7    7    2    1
 3.3425788936383821e-01    7    7    2    2
 1.2604776039043780e-02    7    7    3    1
 1.3910378042931027e-03    7    7    3    2
 6.5006764464163158e-01    7    7    3    3
-1.0495642714199586e-02    7    7    4    1
 7.2960246813552568e-03    7    7    4    2
-2.0098774481171321e-02    7    7    4    3
 6.5509618123168145e-01    7    7    4    4
-1.1129560173460544e-13    7    7    5    1
-2.4690458652629685e-14    7    7    5    2
 4.1472488839643540e-13    7    7    5    3
-4.2722113834068689e-13    7    7    5    4
 6.7745535685142555e-01    7    7    5    5
 1.6054186342367329e-14    7    7    6    1
-6.0310606991959950e-15    7    7    6    2
 3.5988529481883377e-14    7    7    6    3
-4.3380627677073800e-14    7    7    6    4
 4.2309035195122781e-11    7    7    6    5
 6.2297603110262778e-01    7    7    6    6
 1.1918802446831539e-13    7    7    7    1
-3.9952969496703762e-14    7    7    7    2
-1.5085814511773644e-13    7    7    7    3
 1.7193731266038961e-14    7    7    7    4
-1.8808350019445089e-01    7    7    7    5
 8.4294317972142055e-11    7    7    7    6
 5.9766674510216655e-01    7    7    7    7
 6.0497568161429556e-13    8    1    1    1
 2.2413960460081163e-16    8    1    2    1
-1.6052145877560391e-15    8    1    2    2
 3.3825813962483160e-14    8    1    3    1
-1.7603801481194306e-16    8    1    3    2
 7.4289440336445558e-14    8    1    3    3
-2.8107918631042354e-14    8    1    4    1
 3.6580438633616635e-17    8    1    4    2
-4.9549829177289250e-14    8    1    4    3
 6.1574234244052490e-14    8    1    4    4
-2.6293015589028919e-11    8    1    5    1
-4.5028531909262207e-13    8    1    5    2
 8.4044992128750624e-11    8    1    5    3
-7.7808751714925648e-11    8    1    5    4
 1.7399299323497952e-14    8    1    5    5
 4.1148213719097909e-02    8    1    6    1
 1.8831639356540713e-04    8    1    6    2
-3.0162906283727718e-02    8    1    6    3
 2.6801794683988939e-02    8    1    6    4
-9.8566317430257477e-14    8    1    6    5
-7.4609458883304462e-14    8    1    6    6
 3.9084745033793897e-11    8    1    7    1
 7.5251029669514392e-13    8    1    7    2
-3.5183868739506691e-11    8    1    7    3
 3.6003110560641400e-11    8    1    7    4
-2.0585483804792838e-14    8    1    7    5
 5.6306206493547579e-14    8    1    7    6
 2.3875171040539606e-14    8    1    7    7
 5.0139895205479304e-02    8    1    8    1
 1.3153543800297344e-14    8    2    1    1
-6.2756701604512972e-18    8    2    2    1
-9.9517600430666044e-14    8    2    2    2
 3.9089448910190987e-16    8    2    3    1
 3.2777102591808781e-15    8    2    3    2
 7.9958262618584611e-15    8    2    3    3
 1.0332226337833389e-16    8    2    4    1
 8.6091150848338500e-15    8    2    4    2
 2.5215036955494351e-15    8    2    4    3
 1.2386810844359458e-14    8    2    4    4
 2.8297417547034643e-13    8    2    5    1
 2.9395295355661428e-12    8    2    5    2
-8.7963925756936997e-12    8    2    5    3
 1.1578522012663767e-11    8    2    5    4
 1.1451522325309725e-14    8    2    5    5
-1.4996586017412516e-04    8    2    6    1
-8.3824545309374139e-04    8    2    6    2
 7.3655687226940869e-04    8    2    6    3
-2.6079706245835843e-03    8    2    6    4
 6.4440544922161172e-15    8    2    6    5
 1.7405417182220025e-14    8    2    6    6
-2.6509203609496774e-13    8    2    7    1
-2.6496717697378879e-12    8    2    7    2
-5.7266907118922094e-12    8    2    7    3
 4.7788071483408921e-12    8    2    7    4
-1.6616960884377362e-15    8    2    7    5
 5.1092830264666647e-15    8    2    7    6
 9.2630101309914599e-15    8    2    7    7
-1.9095386617003500e-04    8    2    8    1
 1.7986573838165085e-03    8    2    8    2
-1.6852194183549320e-14    8    3    1    1
-1.4477463205762002e-17    8    3    2    1
 4.2907941540921887e-14    8    3    2    2
 1.0526537845512106e-14    8    3    3    1
 5.7741563744215877e-16    8    3    3    2
-9.3587154871351071e-14    8    3    3    3
-2.8479634596714746e-14    8    3    4    1
-2.7084332716510188e-17    8    3    4    2
 6.1846442654793243e-14    8    3    4    3
-6.7169566150627570e-14    8    3    4    4
 3.3880318046956969e-11    8    3    5    1
-1.7799499222524391e-12    8    3    5    2
-1.2951039518579335e-10    8    3    5    3
 8.7986409399170118e-11    8    3    5    4
-1.5672527442946374e-14    8    3    5    5
-1.9061761897053258e-02    8    3    6    1
-3.3798822902014541e-04    8    3    6    2
 4.7814575426350571e-02    8    3    6    3
-2.6790818754855839e-02    8    3    6    4
 1.0132200238877380e-13    8    3    6    5
 9.0575021086374663e-14    8    3    6    6
-4.1166343628693849e-11    8    3    7    1
-6.3973624727824495e-12    8    3    7    2
 1.1527849851036448e-10    8    3    7    3
-1.1230582399208267e-10    8    3    7    4
 1.8203394942951559e-15    8    3    7    5
-4.9731621045777414e-14    8    3    7    6
-6.5611503731653064e-15    8    3    7    7
-2.1877314880872328e-02    8    3    8    1
 4.4235792604552243e-04    8    3    8    2
 3.8374887622419571e-02    8    3    8    3
 2.1418212013003105e-14    8    4    1    1
 4.8250131896895579e-19    8    4    2    1
 5.8467455802085912e-14    8    4    2    2
-2.8086370265595599e-14    8    4    3    1
 8.6127981435291229e-16    8    4    3    2
 8.2409699881516503e-14    8    4    3    3
 8.9756672148628702e-16    8    4    4    1
 1.4631168804069515e-16    8    4    4    2
-3.6700063325306054e-14    8    4    4    3
 2.8954319533122800e-14    8    4    4    4
-3.0067521944030947e-11    8    4    5    1
 3.0483643891872552e-12    8    4    5    2
 5.9626566712158460e-11    8    4    5    3
-4.7745093166420701e-11    8    4    5    4
 1.7192696290837217e-14    8    4    5    5
 1.5015949504161574e-02    8    4    6    1
-7.6647569048429840e-04    8    4    6    2
-1.9942369259397161e-02    8    4    6    3
 2.7009611828319863e-02    8    4    6    4
-5.3608658402679268e-14    8    4    6    5
-4.3410908166516176e-14    8    4    6    6
 3.7006661132149265e-11    8    4    7    1
 5.3928052964534070e-13    8    4    7    2
-1.1251429725069714e-10    8    4    7    3
 1.2200213164349072e-10    8    4    7    4
 5.0865494019343839e-15    8    4    7    5
 5.5950585039081336e-14    8    4    7    6
 2.2447935268559098e-14    8    4    7    7
 1.7035861833745135e-02    8    4    8    1
 1.5786941621282167e-03    8    4    8    2
-1.5093541760912901e-02    8    4    8    3
 3.2347928235223838e-02    8    4    8    4
-4.5738535418267555e-10    8    5    1    1
-2.0148493563345729e-13    8    5    2    1
 9.0437359088280964e-12    8    5    2    2
 1.4879232188498512e-12    8    5    3    1
-9.0062703255674491e-13    8    5    3    2
-3.0484063430095043e-10    8    5    3    3
-3.2137055223794592e-13    8    5    4    1
-3.3196618258334279e-12    8    5    4    2
 5.1007486111965271e-11    8    5    4    3
-2.4623958090216284e-10    8    5    4    4
-2.3005120804944418e-14    8    5    5    1
 1.2158561843690141e-15    8    5    5    2
 1.0938329926846763e-14    8    5    5    3
-6.4431426088680962e-15    8    5    5    4
-2.4507296902139783e-10    8    5    5    5
-5.7199403887759954e-14    8    5    6    1
 1.2113776394094857e-15    8    5    6    2
 8.3601970218602486e-14    8    5    6    3
-5.9866064648362547e-14    8    5    6    4
 1.3565461242750312e-02    8    5    6    5
-2.2790766140750386e-10    8    5    6    6
 2.6025187624664127e-14    8    5    7    1
 2.3614291055657201e-15    8    5    7    2
-2.2984568374466246e-14    8    5    7    3
 2.5860839346780566e-14    8    5    7    4
 1.2667326523046400e-10    8    5    7    5
-1.8162042163140206e-02    8    5    7    6
-1.9799690800105356e-10    8    5    7    7
-6.5094596403697898e-14    8    5    8    1
-2.8114297293081907e-15    8    5    8    2
 5.7684625767449372e-14    8    5    8    3
-4.9921835379505672e-14    8    5    8    4
 1.8162042276643257e-02    8    5    8    5
 5.8751788522014536e-01    8    6    1    1
 2.2169803095101282e-04    8    6    2    1
 8.7049080293595852e-04    8    6    2    2
 9.3342586969491961e-03    8    6    3    1
-2.0682315653412869e-05    8    6    3    2
 2.5367232871817413e-01    8    6    3    3
-9.5340313023772032e-03    8    6    4    1
 1.9696637986165362e-03    8    6    4    2
-1.3584282812810745e-02    8    6    4    3
 2.1996350583586194e-01    8    6    4    4
 2.9295438107253794e-14    8    6    5    1
-3.9550334136671178e-15    8    6    5    2
 7.1555926764328885e-14    8    6    5    3
-1.6998737916418319e-14    8    6    5    4
 2.1760856521150346e-01    8    6    5    5
-4.1732411229003081e-14    8    6    6    1
-4.2202008185082658e-16    8    6    6    2
 1.1029963795732088e-13    8    6    6    3
-6.7438265850225440e-14    8    6    6    4
-1.6965296389134885e-12    8    6    6    5
 2.4473948628856790e-01    8    6    6    6
-4.4536209002878168e-14    8    6    7    1
-3.5967297096269079e-15    8    6    7    2
 3.9323722437009236e-15    8    6    7    3
 1.1006820216651440e-14    8    6    7    4
-1.4539096982299574e-01    8    6    7    5
 6.6784213674232458e-11    8    6    7    6
 1.7150226667727983e-01    8    6    7    7
-4.2856137225420394e-14    8    6    8    1
-1.5187226928901318e-15    8    6    8    2
 5.8944611263756662e-14    8    6    8    3
-5.9977571150923735e-14    8    6    8    4
-1.1946704447240867e-10    8    6    8    5
 1.8171505320068801e-01    8    6    8    6
 5.2349197864760121e-10    8    7    1    1
 2.5236407699781165e-13    8    7    2    1
-3.6074532850831144e-11    8    7    2    2
 9.2541457362779381e-13    8    7    3    1
-2.0327833967376183e-12    8    7    3    2
 3.9922156481682756e-10    8    7    3    3
-2.2841416686949460e-12    8    7    4    1
 3.7387358106346616e-12    8    7    4    2
-1.5768485841731176e-10    8    7    4    3
 3.3477073907705044e-10    8    7    4    4
 3.1719558960042775e-14    8    7    5    1
 2.7316193574251838e-15    8    7    5    2
-7.6273111193999969e-14    8    7    5    3
 7.6440496794307137e-14    8    7    5    4
 2.2826143745560608e-10    8    7    5    5
 6.8621497486104878e-14    8    7    6    1
 5.9097654395248531e-15    8    7    6    2
-1.6500830842346543e-13    8    7    6    3
 1.6536599732808875e-13    8    7    6    4
-2.7239662700977232e-02    8    7    6    5
 2.0837614237894438e-10    8    7    6    6
-3.6860922945814133e-14    8    7    7    1
 4.6336170374556028e-15    8    7    7    2
 3.0114937846872914e-14    8    7    7    3
-7.7356558700857207e-15    8    7    7    4
-1.4121931304974676e-10    8    7    7    5
 8.2906156961880528e-03    8    7    7    6
 1.7482450546157436e-10    8    7    7    7
 7.9746821531928945e-14    8    7    8    1
-1.0023889699062177e-14    8    7    8    2
-6.5149984029326688e-14    8    7    8    3
 1.6742429438961138e-14    8    7    8    4
-8.2906157788737184e-03    8    7    8    5
 1.4381480195058952e-10    8    7    8    6
 2.5320676468089717e-02    8    7    8    7
 1.0453123025254794e+00    8    8    1    1
 2.4757937248023534e-04    8    8    2    1
 3.3425788961352065e-01    8    8    2    2
 1.2604776127176349e-02    8    8    3    1
 1.3910378296275833e-03    8    8    3    2
 6.5006764657824800e-01    8    8    3    3
-1.0495642862688908e-02    8    8    4    1
 7.2960247419891350e-03    8    8    4    2
-2.0098773599480979e-02    8    8    4    3
 6.5509618294346350e-01    8    8    4    4
 3.4762590534326347e-14    8    8    5    1
-1.3051438606858652e-14    8    8    5    2
 7.7870356503874288e-14    8    8    5    3
-9.3827447048894522e-14    8    8    5    4
 6.2297603421340675e-01    8    8    5    5
-5.1460130320345557e-14    8    8    6    1
-1.1409025853856974e-14    8    8    6    2
 1.9168504910698187e-13    8    8    6    3
-1.9747239062340956e-13    8    8    6    4
 2.2423823336907046e-11    8    8    6    5
 6.7745535926851785e-01    8    8    6    6
-5.1615194598644395e-14    8    8    7    1
-2.0045292019793479e-14    8    8    7    2
 1.4204056231822053e-14    8    8    7    3
-4.8534702622193865e-14    8    8    7    4
-1.7150226957804568e-01    8    8    7    5
 9.5864723765552023e-11    8    8    7    6
 5.4702539455344701e-01    8    8    7    7
-5.5075019066575491e-14    8    8    8    1
 1.8459969722422138e-14    8    8    8    2
 6.9743878790148298e-14    8    8    8    3
-7.9513802222958560e-15    8    8    8    4
-1.8123544532526806e-10    8    8    8    5
 1.8808349901099797e-01    8    8    8    6
 1.7482444799547109e-10    8    8    8    7
 5.9766674987708646e-01    8    8    8    8
 3.3221392590117205e-01    9    1    1    1
 1.6891606155588555e-04    9    1    2    1
-4.9733250483553005e-03    9    1    2    2
 1.6086713775708181e-02    9    1    3    1
-1.7008029949746334e-04    9    1    3    2
 4.3742401744657745e-02    9    1    3    3
-5.6555637528122635e-02    9    1    4    1
-4.2425853864000825e-04    9    1    4    2
 6.8476976999758393e-04    9    1    4    3
-2.0589250472446481e-02    9    1    4    4
 3.9343115400747563e-14    9    1    5    1
 2.0006771837339330e-16    9    1    5    2
 1.1853285521175119e-13    9    1    5    3