 &FCI NORB=16,NELEC=4,MS2=0,
  ORBSYM= 1,1,1,1,1,1,1,1,1,1,1,1,1,1,1,1,
  ISYM=1
 &END
 1.6522983356692391e+00    1    1    1    1
 7.9408862161687077e-02    2    1    1    1
 7.2205524639164399e-03    2    1    2    1
 3.3277446891350576e-01    2    2    1    1
-3.5877489202991242e-03    2    2    2    1
 4.6259009978926646e-01    2    2    2    2
 8.1341516432738153e-02    3    1    1    1
 6.8167716447801599e-03    3    1    2    1
 1.7056696429358143e-04    3    1    2    2
 6.7382214853313176e-03    3    1    3    1
 1.3981952291047190e-02    3    2    1    1
 2.1794962654434480e-03    3    2    2    1
-1.3827490380449622e-01    3    2    2    2
 8.4160635112093436e-04    3    2    3    1
 1.1726378290363006e-01    3    2    3    2
 3.1474386739574289e-01    3    3    1    1
-1.7254776496622370e-03    3    3    2    1
 4.1128094875640581e-01    3    3    2    2
 2.8761353141944760e-04    3    3    3    1
-1.2931476548255372e-01    3    3    3    2
 3.9856066895569908e-01    3    3    3    3
-5.1118642588190825e-17    4    1    1    1
-8.4071160392179075e-18    4    1    2    1
 1.8590733037926536e-17    4    1    2    2
-5.6376028528608227e-18    4    1    3    1
-5.2324079439075653e-18    4    1    3    2
 9.8269217545761523e-18    4    1    3    3
 5.1310409206426827e-03    4    1    4    1
-2.0111659609627001e-16    4    2    1    1
 3.9736610836923655e-18    4    2    2    1
-1.4378122728027741e-16    4    2    2    2
-7.3803837587317926e-19    4    2    3    1
 2.5476448950583310e-17    4    2    3    2
-1.4316622228125780e-16    4    2    3    3
-6.4376261451815266e-03    4    2    4    1
 4.4696548698107394e-02    4    2    4    2
-4.1591924680952923e-17    4    3    1    1
-3.5630787301164006e-19    4    3    2    1
 5.5624907963997208e-17    4    3    2    2
-4.1210660223836127e-19    4    3    3    1
-8.3440215700589975e-17    4    3    3    2
 6.4936756801185970e-17    4    3    3    3
-5.4719228867689367e-03    4    3    4    1
 2.9557346927692334e-02    4    3    4    2
 3.0534695654560500e-02    4    3    4    3
 3.7112535122007823e-01    4    4    1    1
-2.1388940720436030e-03    4    4    2    1
 3.2425602647982088e-01    4    4    2    2
-3.8813004953131508e-05    4    4    3    1
-1.4918013397890204e-02    4    4    3    2
 2.9596643050629529e-01    4    4    3    3
 2.5593576222003946e-17    4    4    4    1
-2.0854446323529155e-16    4    4    4    2
-7.4745774513515276e-17    4    4    4    3
 3.5235868762591721e-01    4    4    4    4
 5.4811431385481331e-17    5    1    1    1
 9.3889422313158610e-18    5    1    2    1
-2.1959565105344977e-17    5    1    2    2
 6.7525885154716940e-18    5    1    3    1
 6.0459395302604666e-18    5    1    3    2
-1.2471262178087275e-17    5    1    3    3
-4.8573510005930178e-20    5    1    4    1
-1.8626874582567627e-11    5    1    4    2
 3.9941663770411572e-11    5    1    4    3
-1.3599084410269868e-17    5    1    4    4
 5.1310409206426766e-03    5    1    5    1
 2.2031650814186800e-16    5    2    1    1
-4.3559465649189250e-18    5    2    2    1
 1.5104881637097106e-16    5    2    2    2
 3.3527526223250245e-19    5    2    3    1
-2.1243918438160953e-17    5    2    3    2
 1.5165762928100310e-16    5    2    3    3
 1.8626872639494225e-11    5    2    4    1
 8.4965642365975113e-18    5    2    4    2
-3.1689730453046380e-10    5    2    4    3
 1.4989268448281117e-16    5    2    4    4
-6.4376261451815249e-03    5    2    5    1
 4.4696548698107394e-02    5    2    5    2
 6.4643490584176659e-17    5    3    1    1
 2.2332338884576811e-19    5    3    2    1
-3.4088269019972620e-17    5    3    2    2
 3.9655476611076858e-21    5    3    3    1
 8.0929853028311542e-17    5    3    3    2
-4.1854134179830598e-17    5    3    3    3
-3.9941664175297263e-11    5    3    4    1
 3.1689730674375505e-10    5    3    4    2
-1.0357661521347913e-18    5    3    4    3
 3.8238167955555269e-17    5    3    4    4
-5.4719228867689314e-03    5    3    5    1
 2.9557346927692314e-02    5    3    5    2
 3.0534695654560462e-02    5    3    5    3
 5.7993991666304496e-17    5    4    1    1
-1.0792779013197994e-18    5    4    2    1
 4.8536859694535721e-17    5    4    2    2
-6.6503118670584752e-19    5    4    3    1
-8.0670780930923268e-18    5    4    3    2
 3.4119190762306317e-17    5    4    3    3
-8.6479813030969187e-18    5    4    4    1
 4.3216627764618941e-17    5    4    4    2
 3.4220212234014250e-17    5    4    4    3
 5.2591600562144096e-17    5    4    4    4
 7.4859191763912932e-18    5    4    5    1
-3.7419291750573491e-17    5    4    5    2
-2.9382229113000948e-17    5    4    5    3
 2.1918965905350113e-02    5    4    5    4
 3.7112535122007817e-01    5    5    1    1
-2.1388940720436064e-03    5    5    2    1
 3.2425602647982088e-01    5    5    2    2
-3.8813004953126907e-05    5    5    3    1
-1.4918013397890239e-02    5    5    3    2
 2.9596643050629534e-01    5    5    3    3
 1.1408841093887446e-17    5    5    4    1
-1.3787409400220885e-16    5    5    4    2
-2.0013093076723267e-17    5    5    4    3
 3.0852075581521698e-01    5    5    4    4
-2.9645921398520463e-17    5    5    5    1
 2.2971102216662438e-16    5    5    5    2
 1.0028019939195713e-16    5    5    5    3
 6.1718251724743089e-17    5    5    5    4
 3.5235868762591721e-01    5    5    5    5
 3.3408236287854880e-02    6    1    1    1
 4.5140626619238518e-03    6    1    2    1
-9.3537703156655206e-03    6    1    2    2
 3.4942014515344211e-03    6    1    3    1
 3.7494874638804095e-03    6    1    3    2
-4.9559968332257174e-03    6    1    3    3
-5.2989160018610587e-18    6    1    4    1
-5.3589627297040139e-18    6    1    4    2
-1.2175647859132299e-17    6    1    4    3
-5.3582504236077124e-03    6    1    4    4
 7.2419434010940860e-18    6    1    5    1
 5.1836660674417187e-18    6    1    5    2
 1.2233633777267433e-17    6    1    5    3
-1.5571337965761456e-18    6    1    5    4
-5.3582504236077150e-03    6    1    5    5
 8.2575806987628380e-03    6    1    6    1
 8.3592172757570096e-02    6    2    1    1
-1.3674795201827471e-03    6    2    2    1
 4.1218636391982942e-02    6    2    2    2
 4.9409317562469017e-04    6    2    3    1
-7.4662024080639601e-03    6    2    3    2
 4.2065150502435443e-02    6    2    3    3
-6.0311143389535340e-18    6    2    4    1
-1.4417026284046507e-17    6    2    4    2
 7.0295524927250898e-17    6    2    4    3
 4.9007282918661348e-02    6    2    4    4
 5.9339075636268804e-18    6    2    5    1
 1.5423685165685638e-17    6    2    5    2
-7.3293120759287825e-17    6    2    5    3
 1.3865446068627709e-17    6    2    5    4
 4.9007282918661361e-02    6    2    5    5
-3.2942811960440951e-03    6    2    6    1
 4.7322394498452158e-02    6    2    6    2
 3.0514398321089858e-02    6    3    1    1
 5.4364770839125383e-04    6    3    2    1
-8.8874948628437540e-03    6    3    2    2
 3.0764124353875008e-04    6    3    3    1
 2.3079381051737825e-02    6    3    3    2
-1.3271287090906313e-02    6    3    3    3
-1.0989595068657740e-17    6    3    4    1
 6.8199535618115070e-17    6    3    4    2
 2.5487711046085263e-17    6    3    4    3
 1.6252697438716431e-02    6    3    4    4
 1.1857647184501113e-17    6    3    5    1
-7.3107823879092222e-17    6    3    5    2
-2.9307762985767256e-17    6    3    5    3
 5.0507418643589996e-18    6    3    5    4
 1.6252697438716442e-02    6    3    5    5
 4.6965336789988427e-04    6    3    6    1
-5.2347666778194716e-03    6    3    6    2
 1.3202827445745460e-02    6    3    6    3
 1.5199884714107094e-16    6    4    1    1
-1.2134178304659261e-18    6    4    2    1
-2.9798093746608400e-17    6    4    2    2
-2.3201384057216087e-18    6    4    3    1
 1.0484771887847089e-16    6    4    3    2
 6.3559369797817874e-19    6    4    3    3
-4.0081422614158023e-03    6    4    4    1
 1.9128982485991580e-02    6    4    4    2
 1.4448854417081434e-02    6    4    4    3
 1.3833906750792003e-16    6    4    4    4
-4.8644417061222658e-11    6    4    5    1
 2.3334179554247086e-10    6    4    5    2
 3.1974900101954286e-10    6    4    5    3
-1.9541531904077053e-17    6    4    5    4
 9.8532081898073001e-17    6    4    5    5
-7.9080887300020841e-18    6    4    6    1
 1.2726903127843767e-16    6    4    6    2
 5.4446306980531231e-17    6    4    6    3
 1.2531669888854092e-02    6    4    6    4
-1.4722984401276304e-16    6    5    1    1
 1.4172437377025532e-18    6    5    2    1
 4.1076899707625435e-17    6    5    2    2
 2.4934696657588948e-18    6    5    3    1
-1.1290850566358781e-16    6    5    3    2
 7.4832871171426238e-18    6    5    3    3
 4.8644415134558280e-11    6    5    4    1
-2.3334178461471580e-10    6    5    4    2
-3.1974899555083175e-10    6    5    4    3
-9.7588240165760823e-17    6    5    4    4
-4.0081422614158023e-03    6    5    5    1
 1.9128982485991583e-02    6    5    5    2
 1.4448854417081431e-02    6    5    5    3
 1.8890900123999756e-17    6    5    5    4
-1.3988525445374928e-16    6    5    5    5
 8.1363044676619311e-18    6    5    6    1
-1.3760608539028540e-16    6    5    6    2
-5.8283144472212780e-17    6    5    6    3
 2.7416782233494464e-18    6    5    6    4
 1.2531669888854095e-02    6    5    6    5
 2.9613480181078311e-01    6    6    1    1
-1.2007779670886577e-03    6    6    2    1
 3.3210809262862867e-01    6    6    2    2
 1.2700717432378860e-03    6    6    3    1
-6.6957392431403806e-02    6    6    3    2
 2.8857865742126682e-01    6    6    3    3
-6.1396518521225877e-18    6    6    4    1
 3.4886279123044282e-17    6    6    4    2
 7.6403002102462405e-17    6    6    4    3
 2.5492874984389408e-01    6    6    4    4
 5.4801040249938215e-18    6    6    5    1
-4.0053847283050194e-17    6    6    5    2
-6.6016334346139504e-17    6    6    5    3
 1.5285230887049544e-17    6    6    5    4
 2.5492874984389408e-01    6    6    5    5
-5.3175977449657899e-03    6    6    6    1
 3.3088527121001069e-03    6    6    6    2
 3.3533430695740266e-03    6    6    6    3
-4.3922060296327469e-17    6    6    6    4
 5.7537437322395769e-17    6    6    6    5
 2.9896360874149774e-01    6    6    6    6
 3.9597691388785347e-03    7    1    1    1
 1.7769656350199879e-03    7    1    2    1
-6.8095002659797847e-03    7    1    2    2
 1.1015906067116197e-03    7    1    3    1
 2.2588823661957979e-03    7    1    3    2
-3.7990673881170235e-03    7    1    3    3
-6.3030475566190534e-18    7    1    4    1
 5.2458102033652082e-18    7    1    4    2
-1.4340879584934990e-18    7    1    4    3
-4.4752862398912772e-03    7    1    4    4
 8.4239339910536169e-18    7    1    5    1
-6.8930952009962344e-18    7    1    5    2
 9.8567738218248039e-20    7    1    5    3
-9.9386772779906146e-19    7    1    5    4
-4.4752862398912780e-03    7    1    5    5
 3.8722770989128613e-03    7    1    6    1
-2.8087898927703966e-03    7    1    6    2
 4.0793915063107868e-05    7    1    6    3
-4.9703295453971924e-19    7    1    6    4
-2.7242225663370807e-19    7    1    6    5
-4.4164444989455301e-03    7    1    6    6
 2.1236677248205808e-03    7    1    7    1
 1.8192893395309575e-02    7    2    1    1
-4.8434031055905524e-04    7    2    2    1
-2.6520030026061604e-02    7    2    2    2
 1.0426783501367693e-04    7    2    3    1
 5.1382172614451188e-02    7    2    3    2
-5.4733897573292355e-02    7    2    3    3
 2.8013253626189356e-18    7    2    4    1
 3.1301934965608008e-17    7    2    4    2
-4.6469963298154390e-17    7    2    4    3
 1.5147520150787875e-02    7    2    4    4
-3.6258334969957690e-18    7    2    5    1
-2.9110495655947115e-17    7    2    5    2
 4.7184546797964976e-17    7    2    5    3
 3.7902328225928778e-18    7    2    5    4
 1.5147520150787880e-02    7    2    5    5
-1.6072168902054079e-03    7    2    6    1
-1.0441246060506192e-02    7    2    6    2
 1.7570771384233543e-02    7    2    6    3
 2.0494935645105488e-17    7    2    6    4
-1.9853987904805257e-17    7    2    6    5
 6.4547078257798738e-03    7    2    6    6
-1.2390626513302824e-03    7    2    7    1
 5.1187570453987745e-02    7    2    7    2
 3.2976616797005066e-02    7    3    1    1
-1.9285712933480024e-03    7    3    2    1
 1.4864139194642112e-01    7    3    2    2
-1.5280276705111677e-04    7    3    3    1
-1.0870210085989024e-01    7    3    3    2
 1.4458784476467457e-01    7    3    3    3
 7.8886263874331402e-18    7    3    4    1
-6.2406290676445332e-17    7    3    4    2
 8.1954215432718579e-17    7    3    4    3
 4.3387885091124088e-02    7    3    4    4
-9.9688605366310082e-18    7    3    5    1
 6.4955297180343560e-17    7    3    5    2
-7.4666083205273269e-17    7    3    5    3
 1.2442374858640111e-17    7    3    5    4
 4.3387885091124116e-02    7    3    5    5
-4.8101868310024293e-03    7    3    6    1
 2.2817972796123506e-02    7    3    6    2
-2.3089254411923131e-02    7    3    6    3
-6.0460157615107844e-17    7    3    6    4
 6.6610625190325769e-17    7    3    6    5
 7.1632210272440780e-02    7    3    6    6
-3.4360472905771611e-03    7    3    7    1
-5.2173134608978058e-02    7    3    7    2
 1.1932678642783347e-01    7    3    7    3
-1.9194917268323369e-17    7    4    1    1
-5.8691982890776852e-19    7    4    2    1
 1.6457718989660493e-16    7    4    2    2
-1.2354931706208838e-18    7    4    3    1
-1.1102510577595664e-16    7    4    3    2
 1.6233138810918924e-16    7    4    3    3
-1.8281217145068539e-03    7    4    4    1
 1.3356265185686890e-02    7    4    4    2
 3.2735520739226760e-03    7    4    4    3
 2.4300651928213264e-17    7    4    4    4
-9.7443457599997862e-11    7    4    5    1
 4.8248610138895107e-10    7    4    5    2
 5.1793997334111447e-10    7    4    5    3
 1.2597325632434892e-17    7    4    5    4
 4.2970319576056926e-17    7    4    5    5
-4.0085750353369906e-18    7    4    6    1
 1.3010433758550213e-18    7    4    6    2
-1.4308765239545283e-17    7    4    6    3
 6.2656164552918345e-03    7    4    6    4
 1.6190691371228412e-10    7    4    6    5
 1.4391239298663687e-16    7    4    6    6
 6.5529398079985957e-19    7    4    7    1
-5.0072338786307382e-17    7    4    7    2
 1.0194545550293314e-16    7    4    7    3
 1.1538711856096886e-02    7    4    7    4
 7.1092846525146110e-17    7    5    1    1
 5.1101157934421339e-19    7    5    2    1
-1.3058605397886308e-16    7    5    2    2
 1.4033151921438455e-18    7    5    3    1
 1.1060007400672286e-16    7    5    3    2
-1.2952527599197846e-16    7    5    3    3
 9.7443455690489597e-11    7    5    4    1
-4.8248608830764421e-10    7    5    4    2
-5.1793996269403471e-10    7    5    4    3
-6.8906110747243240e-18    7    5    4    4
-1.8281217145068559e-03    7    5    5    1
 1.3356265185686908e-02    7    5    5    2
 3.2735520739226890e-03    7    5    5    3
-9.5113216281144059e-18    7    5    5    4
 1.7743871470812326e-17    7    5    5    5
 3.6661444909580439e-18    7    5    6    1
 4.9839946013648363e-18    7    5    6    2
 1.5309081104717196e-17    7    5    6    3
-1.6190690732726537e-10    7    5    6    4
 6.2656164552918406e-03    7    5    6    5
-1.2047894432937500e-16    7    5    6    6
-1.4311458473379637e-18    7    5    7    1
 5.0109320137496559e-17    7    5    7    2
-9.6676082806567843e-17    7    5    7    3
-7.2175290568178047e-20    7    5    7    4
 1.1538711856096883e-02    7    5    7    5
 3.5059954178048969e-02    7    6    1    1
 1.9447362734183212e-04    7    6    2    1
-4.7977504437181330e-02    7    6    2    2
 6.7207310509266398e-04    7    6    3    1
 4.1929570916689494e-02    7    6    3    2
-4.6009584109640018e-02    7    6    3    3
-2.7352988295636872e-18    7    6    4    1
 6.4438332180280398e-19    7    6    4    2
-1.9738229992453171e-17    7    6    4    3
 9.7505106856902166e-04    7    6    4    4
 2.7420217041673851e-18    7    6    5    1
 2.9708890642694429e-18    7    6    5    2
 1.9305279502311253e-17    7    6    5    3
-3.1209412826181207e-18    7    6    5    4
 9.7505106856902979e-04    7    6    5    5
-3.6151192667014807e-04    7    6    6    1
 1.6231130195181995e-02    7    6    6    2
 8.2276803162010838e-03    7    6    6    3
 8.8700337652327086e-17    7    6    6    4
-9.5068418579694136e-17    7    6    6    5
-3.5851545110945529e-02    7    6    6    6
-7.5825290553711378e-04    7    6    7    1
 1.7004635937361120e-02    7    6    7    2
-3.6690708496868542e-02    7    6    7    3
-4.7415699107622770e-17    7    6    7    4
 4.8348232913330257e-17    7    6    7    5
 2.9669782656521641e-02    7    6    7    6
 2.9239914589475408e-01    7    7    1    1
-2.5397770624019300e-03    7    7    2    1
 4.0001915107372338e-01    7    7    2    2
-1.3944238516156720e-04    7    7    3    1
-1.2611108105794824e-01    7    7    3    2
 3.8200054038506587e-01    7    7    3    3
 1.3004564893655044e-17    7    7    4    1
-1.3389868197092369e-16    7    7    4    2
 6.6985058723406002e-17    7    7    4    3
 2.8192215365522966e-01    7    7    4    4
-1.4854702484643751e-17    7    7    5    1
 1.3720241764178387e-16    7    7    5    2
-5.0122269410485743e-17    7    7    5    3
 4.4752594835775838e-17    7    7    5    4
 2.8192215365522966e-01    7    7    5    5
-6.1803863143912686e-03    7    7    6    1
 3.7215997407852613e-02    7    7    6    2
-1.6020246516656525e-02    7    7    6    3
-2.9581112469472489e-17    7    7    6    4
 3.8365996234823236e-17    7    7    6    5
 2.8915521650497489e-01    7    7    6    6
-4.5642584545619166e-03    7    7    7    1
-4.7974750257421296e-02    7    7    7    2
 1.4418839134083600e-01    7    7    7    3
 1.6472359747821290e-16    7    7    7    4
-1.3349325388690433e-16    7    7    7    5
-4.8228307810650385e-02    7    7    7    6
 3.7701864589749495e-01    7    7    7    7
 9.0908206696447794e-02    8    1    1    1
 4.1508451406192266e-03    8    1    2    1
 1.2642701099926388e-02    8    1    2    2
 5.2756255324674269e-03    8    1    3    1
-2.0232518571549562e-03    8    1    3    2
 7.9113106825313261e-03    8    1    3    3
 9.8893577467221714e-18    8    1    4    1
-1.1436477578531168e-17    8    1    4    2
-6.9429761872983668e-19    8    1    4    3
 1.0337417822679933e-02    8    1    4    4
-1.2885839620468400e-17    8    1    5    1
 1.3760190844925190e-17    8    1    5    2
 2.7366974096770109e-18    8    1    5    3
 2.7578460161543155e-18    8    1    5    4
 1.0337417822679933e-02    8    1    5    5
-4.5894677085433315e-03    8    1    6    1
 5.2089121421473464e-03    8    1    6    2
 6.7174548999765417e-04    8    1    6    3
 2.5290346660835124e-18    8    1    6    4
-1.3671768534190614e-18    8    1    6    5
 9.1442249158592628e-03    8    1    6    6
-3.3567252079326503e-03    8    1    7    1
 2.5060752362626878e-03    8    1    7    2
 5.4405335809153731e-03    8    1    7    3
-2.0496886180782370e-18    8    1    7    4
 3.8919732088692001e-18    8    1    7    5
 2.0682824707572520e-03    8    1    7    6
 8.2828170051055076e-03    8    1    7    7
 1.4921427396774243e-02    8    1    8    1
 1.7949021610638938e-02    8    2    1    1
 9.2479329407774114e-04    8    2    2    1
 3.6363686589546531e-03    8    2    2    2
 4.9230529371355777e-04    8    2    3    1
 5.1659626327607685e-04    8    2    3    2
 2.7796880504095210e-03    8    2    3    3
-2.2962673996441358e-18    8    2    4    1
 4.6891550206921667e-18    8    2    4    2
-3.8385159200201476e-18    8    2    4    3
 4.1160641005168622e-03    8    2    4    4
 2.9098290534807167e-18    8    2    5    1
-4.7013894943710768e-18    8    2    5    2
 4.0235332220318685e-18    8    2    5    3
-2.7662437616680928e-19    8    2    5    4
 4.1160641005168648e-03    8    2    5    5
 1.4144948016835740e-03    8    2    6    1
-2.3568860343396035e-03    8    2    6    2
 2.4514774676513791e-03    8    2    6    3
-2.5300275253642005e-18    8    2    6    4
 2.9275753340023911e-18    8    2    6    5
 5.5702711367976053e-03    8    2    6    6
 9.4066365856208518e-04    8    2    7    1
 1.7372770807424526e-03    8    2    7    2
-3.3286782860532460e-03    8    2    7    3
 1.9607519378115278e-19    8    2    7    4
 4.6654666353601049e-19    8    2    7    5
-6.2786025755611516e-04    8    2    7    6
 1.7785736646501881e-03    8    2    7    7
-1.1902474441344221e-03    8    2    8    1
 3.1196871609508168e-03    8    2    8    2
 4.9230904862140462e-02    8    3    1    1
 1.4236322099423363e-03    8    3    2    1
 5.5864776187541159e-03    8    3    2    2
 8.5530221351122352e-04    8    3    3    1
 7.5026776953032682e-04    8    3    3    2
 1.2598953619871766e-02    8    3    3    3
-5.0301619467927745e-18    8    3    4    1
-1.3165058505810041e-17    8    3    4    2
 5.7209320558348822e-18    8    3    4    3
 1.2003439981365866e-02    8    3    4    4
 6.0343477539067440e-18    8    3    5    1
 1.4130957783368160e-17    8    3    5    2
-5.5201475974523667e-18    8    3    5    3
-1.2915886679081099e-18    8    3    5    4
 1.2003439981365873e-02    8    3    5    5
 2.4159413607047556e-03    8    3    6    1
 8.2857034610186071e-03    8    3    6    2
 4.1678068963557191e-04    8    3    6    3
 2.0034526207007044e-17    8    3    6    4
-2.1679341850593131e-17    8    3    6    5
 3.0285261354006964e-03    8    3    6    6
 1.4531383278990485e-03    8    3    7    1
-5.8950510096473091e-03    8    3    7    2
 1.0054735989839939e-03    8    3    7    3
-4.7099511607631445e-18    8    3    7    4
 7.1365658755330602e-18    8    3    7    5
 2.7351968316729372e-03    8    3    7    6
 1.0682930207051387e-02    8    3    7    7
-1.9928767757085440e-03    8    3    8    1
 4.4549759051644719e-03    8    3    8    2
 1.2339309469450182e-02    8    3    8    3
 6.8673943029307395e-17    8    4    1    1
 4.2326391357601602e-19    8    4    2    1
 5.9822872920751430e-17    8    4    2    2
 1.5610815705492624e-18    8    4    3    1
-1.8911561626662317e-17    8    4    3    2
 5.1233926653983408e-17    8    4    3    3
 6.1634752938775200e-04    8    4    4    1
-4.2663586465378567e-03    8    4    4    2
-4.3147334580041401e-03    8    4    4    3
 4.1627160037656994e-17    8    4    4    4
 9.3749156085333829e-11    8    4    5    1
-1.3261588015864515e-10    8    4    5    2
-2.5433937831384909e-10    8    4    5    3
-2.5739670904075950e-18    8    4    5    4
 3.7493577404918635e-17    8    4    5    5
-3.6821842742712191e-19    8    4    6    1
-6.5615030260388550e-18    8    4    6    2
-7.4936955737955622e-18    8    4    6    3
-1.3349492094664776e-03    8    4    6    4
 1.4907515056194651e-11    8    4    6    5
 4.0602779750389614e-17    8    4    6    6
-1.7807001181596771e-18    8    4    7    1
-2.5544958606166094e-18    8    4    7    2
 2.0362188980594988e-17    8    4    7    3
-2.4515978851825400e-04    8    4    7    4
 1.8984722513192077e-10    8    4    7    5
-1.0820942049107564e-17    8    4    7    6
 5.1522558754499815e-17    8    4    7    7
 6.6872220047205223e-18    8    4    8    1
-1.4520949968178003e-18    8    4    8    2
-5.5930875318709172e-18    8    4    8    3
 3.2052565553086039e-03    8    4    8    4
-1.0014014870476007e-16    8    5    1    1
-9.4252689204924858e-19    8    5    2    1
-7.0227301233811935e-17    8    5    2    2
-2.0468644760704813e-18    8    5    3    1
 1.8231667702239073e-17    8    5    3    2
-6.2164169772295666e-17    8    5    3    3
-9.3749154781537034e-11    8    5    4    1
 1.3261587653375584e-10    8    5    4    2
 2.5433937563497727e-10    8    5    4    3
-4.9698157464711495e-17    8    5    4    4
 6.1634752938775504e-04    8    5    5    1
-4.2663586465378680e-03    8    5    5    2
-4.3147334580041488e-03    8    5    5    3
 2.1249924385625560e-18    8    5    5    4
-5.4661362379161835e-17    8    5    5    5
-1.0413483375072893e-19    8    5    6    1
 4.7739285597984281e-18    8    5    6    2
 7.0576913943039795e-18    8    5    6    3
-1.4907516745672908e-11    8    5    6    4
-1.3349492094664802e-03    8    5    6    5
-4.9635342717219788e-17    8    5    6    6
 1.9143276041829889e-18    8    5    7    1
 2.2430422437864374e-18    8    5    7    2
-2.0959776368276556e-17    8    5    7    3
-1.8984722747230561e-10    8    5    7    4
-2.4515978851825601e-04    8    5    7    5
 9.4684792434788673e-18    8    5    7    6
-6.0873152322602060e-17    8    5    7    7
-7.6513515759549767e-18    8    5    8    1
 4.1713899799415312e-19    8    5    8    2
 3.0268353216238995e-18    8    5    8    3
-8.0177320229403730e-20    8    5    8    4
 3.2052565553086125e-03    8    5    8    5
-2.7028522216844708e-02    8    6    1    1
-8.3935385969507144e-05    8    6    2    1
-2.4563327822290527e-02    8    6    2    2
-7.1659445099489462e-04    8    6    3    1
 1.0796652214558991e-02    8    6    3    2
-1.8650285846272541e-02    8    6    3    3
-3.2621144028717389e-19    8    6    4    1
-7.1030572712691861e-18    8    6    4    2
-1.3054904158956140e-17    8    6    4    3
-1.2460613111928108e-02    8    6    4    4
 6.0250403759847338e-19    8    6    5    1
 8.1909007359014110e-18    8    6    5    2
 1.2911094040398557e-17    8    6    5    3
-1.0967217047261249e-17    8    6    5    4
-1.2460613111928065e-02    8    6    5    5
 1.1727598294179362e-03    8    6    6    1
-5.3179572288357998e-04    8    6    6    2
-6.4510893632145120e-05    8    6    6    3
 8.9615325418874417e-18    8    6    6    4
-1.0326455359004646e-17    8    6    6    5
-1.8245230232898910e-02    8    6    6    6
 1.2489325478304391e-03    8    6    7    1
-9.6876083758876366e-05    8    6    7    2
-1.1464699460612909e-02    8    6    7    3
-1.4394968263116593e-17    8    6    7    4
 1.3053895574479949e-17    8    6    7    5
 4.7196335711794119e-03    8    6    7    6
-1.9078905647533222e-02    8    6    7    7
-3.7958007161960012e-03    8    6    8    1
 9.0886383646902598e-04    8    6    8    2
 3.0323919275976620e-03    8    6    8    3
-7.3023933219439539e-18    8    6    8    4
 7.9007615089123285e-18    8    6    8    5
 7.7430136849620341e-03    8    6    8    6
-5.4366127472223399e-02    8    7    1    1
-1.1469332406150049e-03    8    7    2    1
 5.6223364922269011e-03    8    7    2    2
-8.3219888858604874e-04    8    7    3    1
-1.4924828004692435e-02    8    7    3    2
 2.4204247745888978e-03    8    7    3    3
 3.2028357150721518e-18    8    7    4    1
 1.0805051550808758e-17    8    7    4    2
 9.8396980344598567e-18    8    7    4    3
-1.3870360698988522e-02    8    7    4    4
-4.4529206320280039e-18    8    7    5    1
-1.0212667247947588e-17    8    7    5    2
-7.6798840451293445e-18    8    7    5    3
-1.0067572057750775e-18    8    7    5    4
-1.3870360698988513e-02    8    7    5    5
-1.8266904862159173e-03    8    7    6    1
-7.2052292126656607e-03    8    7    6    2
-4.7938471021741497e-03    8    7    6    3
-3.3494845834870410e-17    8    7    6    4
 3.6264550363567314e-17    8    7    6    5
 1.5347218538471566e-03    8    7    6    6
-8.5849284194266238e-04    8    7    7    1
-4.4805344448849158e-03    8    7    7    2
 1.3318416716160516e-02    8    7    7    3
 2.0068091651699507e-17    8    7    7    4
-2.3030048363607000e-17    8    7    7    5
-9.2826614786067265e-03    8    7    7    6
 5.0401563616834025e-03    8    7    7    7
 6.7158759040253672e-04    8    7    8    1
-3.6489594422387393e-03    8    7    8    2
-9.5523100456277980e-03    8    7    8    3
 2.1381371112781093e-18    8    7    8    4
-2.2290318082439100e-19    8    7    8    5
-1.8373106277307207e-03    8    7    8    6
 1.0877877016328648e-02    8    7    8    7
 3.6796220802866159e-01    8    8    1    1
 5.3393946188294312e-03    8    8    2    1
 2.0017383532551655e-01    8    8    2    2
 3.9407981552730632e-03    8    8    3    1
 1.0469242536522937e-02    8    8    3    2
 2.0858938844121996e-01    8    8    3    3
-1.7059519088398883e-17    8    8    4    1
-7.6503131494988533e-17    8    8    4    2
-1.5668763519390367e-17    8    8    4    3
 2.2689693889198953e-01    8    8    4    4
 2.0871873970619712e-17    8    8    5    1
 7.6867482482378994e-17    8    8    5    2
 2.0060236851324787e-17    8    8    5    3
 5.1405942768090475e-17    8    8    5    4
 2.2689693889198947e-01    8    8    5    5
 8.4381383909535729e-03    8    8    6    1
 2.7345376556985903e-02    8    8    6    2
 1.3713062709106348e-02    8    8    6    3
 8.0068295302500977e-17    8    8    6    4
-8.1638807572677471e-17    8    8    6    5
 1.8660377485666388e-01    8    8    6    6
 4.2232234977096763e-03    8    8    7    1
-1.4525805300501843e-03    8    8    7    2
-2.2230798890546322e-03    8    8    7    3
 1.2137377073299949e-17    8    8    7    4
 1.6515351456212438e-17    8    8    7    5
 8.0721056717937452e-03    8    8    7    6
 1.9671924499617419e-01    8    8    7    7
-6.4346807238881733e-03    8    8    8    1
 1.5145498537660744e-02    8    8    8    2
 3.8142910462218606e-02    8    8    8    3
-5.2355839244012387e-18    8    8    8    4
-5.1252733685898023e-18    8    8    8    5
 1.0831012137318385e-02    8    8    8    6
-3.3295755051019171e-02    8    8    8    7
 3.0669171595120548e-01    8    8    8    8
-3.2397415117741716e-16    9    1    1    1
-2.6639382854983744e-17    9    1    2    1
-1.2827134742876814e-17    9    1    2    2
-2.9098804532797141e-17    9    1    3    1
 1.3276524981891791e-17    9    1    3    2
-1.4484370237133236e-18    9    1    3    3
 4.2450298749851974e-19    9    1    4    1
 8.8131358378468124e-19    9    1    4    2
-7.7117415225303982e-19    9    1    4    3
 1.7866578226788253e-03    9    1    4    4
-6.4196660602658389e-20    9    1    5    1
 3.4127594387761726e-19    9    1    5    2
-2.7753415326173969e-20    9    1    5    3