 &FCI NORB=16,NELEC=4,MS2=0,
  ORBSYM= 1,1,1,1,1,1,1,1,1,1,1,1,1,1,1,1,
  ISYM=1
 &END
 2.2799043576763789e+00    1    1    1    1
 1.3166683374389782e-01    2    1    1    1
 1.5059299662109353e-02    2    1    2    1
 4.8725721894778795e-01    2    2    1    1
-3.3177681939700211e-03    2    2    2    1
 5.3898412139823004e-01    2    2    2    2
-1.5627356846996571e-01    3    1    1    1
-1.5048949588671267e-02    3    1    2    1
-3.8124082195908717e-03    3    1    2    2
 1.7347253869828095e-02    3    1    3    1
-7.4916860464125989e-02    3    2    1    1
-2.9245040848213202e-03    3    2    2    1
 1.0930430534173204e-01    3    2    2    2
 2.9876101408195747e-03    3    2    3    1
 1.2782874530254382e-01    3    2    3    2
 4.6701270103769177e-01    3    3    1    1
 9.0078992319814546e-04    3    3    2    1
 4.8855658445901429e-01    3    3    2    2
-2.6987008755482871e-03    3    3    3    1
 1.0855367074279315e-01    3    3    3    2
 4.9511039736795237e-01    3    3    3    3
 2.7199461860738789e-17    4    1    1    1
 6.0063754571731300e-18    4    1    2    1
-1.6178384884942652e-18    4    1    2    2
-2.4996490138883902e-18    4    1    3    1
 3.4848027986618240e-18    4    1    3    2
 4.5039700038880544e-18    4    1    3    3
 1.3168981302430322e-02    4    1    4    1
 1.2974980654740788e-16    4    2    1    1
-4.1173654635572617e-18    4    2    2    1
 1.1943010763725872e-16    4    2    2    2
-1.8938450471315948e-18    4    2    3    1
 7.3611801926590980e-18    4    2    3    2
 8.5294378515393767e-17    4    2    3    3
-1.4125108410725137e-02    4    2    4    1
 7.2903160278838891e-02    4    2    4    2
 6.8156826394575375e-17    4    3    1    1
 2.0200862997647936e-18    4    3    2    1
 1.0503056181604398e-16    4    3    2    2
 8.0325698813546043e-19    4    3    3    1
 4.8618189879238197e-17    4    3    3    2
 1.2827680990613501e-16    4    3    3    3
 1.1525752675695002e-02    4    3    4    1
-4.4026204158529959e-02    4    3    4    2
 4.1400616068539293e-02    4    3    4    3
 5.6876985392690427e-01    4    4    1    1
-2.5084968509288884e-03    4    4    2    1
 4.4632041971938757e-01    4    4    2    2
-4.2592192152273488e-03    4    4    3    1
-1.2483186212700479e-02    4    4    3    2
 4.0448331767696777e-01    4    4    3    3
 1.7617441468108372e-18    4    4    4    1
 9.3167814426720240e-17    4    4    4    2
 8.9253352179311238e-17    4    4    4    3
 5.1032534804841712e-01    4    4    4    4
 9.8361252285246239e-18    5    1    1    1
 1.0250646595479723e-18    5    1    2    1
 1.3591570177616950e-18    5    1    2    2
-9.8284586887462798e-19    5    1    3    1
 8.4033638941268367e-19    5    1    3    2
 6.5676019803258262e-19    5    1    3    3
 4.2504229060893537e-18    5    1    4    1
 7.5229466671261652e-11    5    1    4    2
-2.4721075292498028e-10    5    1    4    3
 1.4543111917461841e-18    5    1    4    4
 1.3168981302430303e-02    5    1    5    1
 1.4025665986459223e-17    5    2    1    1
-5.3242178230494494e-19    5    2    2    1
 1.8222082123805489e-17    5    2    2    2
-1.9326255259132460e-19    5    2    3    1
 7.9217699608770502e-18    5    2    3    2
 1.8976802448413093e-17    5    2    3    3
-7.5229470786370403e-11    5    2    4    1
-5.7951716158915154e-18    5    2    4    2
 6.7977690346106632e-10    5    2    4    3
 8.6998039029751824e-18    5    2    4    4
-1.4125108410725123e-02    5    2    5    1
 7.2903160278838822e-02    5    2    5    2
 5.0156474146641670e-18    5    3    1    1
-1.8966087196210128e-19    5    3    2    1
 2.7247688379231688e-17    5    3    2    2
 1.8091761402776311e-19    5    3    3    1
 1.7332731505974157e-17    5    3    3    2
 2.4315253656185815e-17    5    3    3    3
 2.4721075792465233e-10    5    3    4    1
-6.7977690287894220e-10    5    3    4    2
 1.2065197020477430e-18    5    3    4    3
 1.4225828650891794e-17    5    3    4    4
 1.1525752675694986e-02    5    3    5    1
-4.4026204158529925e-02    5    3    5    2
 4.1400616068539280e-02    5    3    5    3
 1.7601493447034242e-17    5    4    1    1
-2.3969380177986876e-19    5    4    2    1
-1.9862121132657527e-17    5    4    2    2
-6.3659626702627807e-20    5    4    3    1
-2.6053180180613140e-18    5    4    3    2
-2.1742640487578824e-17    5    4    3    3
 9.5899160733918149e-19    5    4    4    1
-4.2963269682315428e-18    5    4    4    2
 3.4898708755011774e-18    5    4    4    3
-1.6211824221074459e-17    5    4    4    4
 4.1133072025040868e-19    5    4    5    1
 4.9967031089648843e-19    5    4    5    2
 4.2601406966322747e-18    5    4    5    3
 3.0928159289238689e-02    5    4    5    4
 5.6876985392690371e-01    5    5    1    1
-2.5084968509288923e-03    5    5    2    1
 4.4632041971938724e-01    5    5    2    2
-4.2592192152273497e-03    5    5    3    1
-1.2483186212700448e-02    5    5    3    2
 4.0448331767696749e-01    5    5    3    3
-1.0026982736037571e-18    5    5    4    1
 1.0065337022177267e-16    5    5    4    2
 7.3525037938931085e-17    5    5    4    3
 4.4846902946993922e-01    5    5    4    4
 5.2764207281908419e-18    5    5    5    1
-8.2132087919889462e-18    5    5    5    2
 2.8273825954142503e-17    5    5    5    3
-9.6256160700724316e-18    5    5    5    4
 5.1032534804841612e-01    5    5    5    5
-6.8305081499347470e-02    6    1    1    1
-1.1529006174271501e-02    6    1    2    1
 1.5414723076156966e-02    6    1    2    2
 7.0083652440661396e-03    6    1    3    1
 7.1471896594444279e-03    6    1    3    2
 3.9438677492205348e-03    6    1    3    3
 8.5946613523652044e-18    6    1    4    1
-6.2051246499734888e-18    6    1    4    2
 1.1143205782518246e-17    6    1    4    3
 9.3701797745825779e-03    6    1    4    4
 2.3768258466585221e-18    6    1    5    1
-9.9635012317986720e-19    6    1    5    2
 3.1546487815356683e-18    6    1    5    3
-1.5568013187177850e-18    6    1    5    4
 9.3701797745825710e-03    6    1    5    5
 1.8959506954412300e-02    6    1    6    1
-1.5363825519022054e-01    6    2    1    1
 2.8826910304435146e-03    6    2    2    1
-8.4813938286708065e-02    6    2    2    2
 4.0271673162565469e-03    6    2    3    1
 1.0723210015926061e-02    6    2    3    2
-4.7002412127935995e-02    6    2    3    3
-7.5905492646965426e-18    6    2    4    1
-6.9652507012587653e-18    6    2    4    2
-2.9259304707135933e-17    6    2    4    3
-9.5704264660479918e-02    6    2    4    4
-1.7627057493811245e-18    6    2    5    1
-2.2247237271464547e-18    6    2    5    2
-3.6678751803975024e-18    6    2    5    3
-1.0205247148633492e-18    6    2    5    4
-9.5704264660479821e-02    6    2    5    5
-1.0385270069167792e-02    6    2    6    1
 7.6550645353803848e-02    6    2    6    2
 1.4314784992050508e-02    6    3    1    1
-2.2755538759071077e-04    6    3    2    1
 3.5892817419035661e-02    6    3    2    2
-1.0221423388854631e-03    6    3    3    1
 2.7457294735291415e-02    6    3    3    2
 3.0565622855776697e-02    6    3    3    3
 6.6882562325744650e-18    6    3    4    1
-1.6822042826393172e-17    6    3    4    2
 2.6676846469781798e-17    6    3    4    3
 1.3964508251382226e-02    6    3    4    4
 1.2133075503780076e-18    6    3    5    1
-5.4017887348304093e-19    6    3    5    2
 6.4548063065755073e-18    6    3    5    3
-8.0056054798746911e-19    6    3    5    4
 1.3964508251382209e-02    6    3    5    5
 3.8528402540969888e-03    6    3    6    1
 6.6436175965805394e-03    6    3    6    2
 2.0334906055353624e-02    6    3    6    3
 1.9514693085208353e-16    6    4    1    1
 2.6407474217815297e-18    6    4    2    1
 8.2184070052198204e-17    6    4    2    2
-2.2307333998514324e-18    6    4    3    1
-2.4679384703256265e-17    6    4    3    2
 9.1574359230803998e-17    6    4    3    3
 7.1694103578828780e-03    6    4    4    1
-2.7607921994917739e-02    6    4    4    2
 1.1773123903151330e-02    6    4    4    3
 1.3496982785790038e-16    6    4    4    4
 2.5508497237566187e-10    6    4    5    1
-1.2046437774449892e-09    6    4    5    2
 1.0171088853216423e-09    6    4    5    3
 2.2805925430024483e-18    6    4    5    4
 1.0870469061833482e-16    6    4    5    5
 2.5125650017999489e-18    6    4    6    1
-4.3555857721048895e-17    6    4    6    2
 1.9154529885830227e-18    6    4    6    3
 2.2873081804961219e-02    6    4    6    4
 3.7602110480562285e-17    6    5    1    1
 8.4707810147928540e-19    6    5    2    1
 1.1638461642397542e-17    6    5    2    2
-6.2413832913575241e-19    6    5    3    1
-4.0013702293542255e-18    6    5    3    2
 1.4561137381839802e-17    6    5    3    3
-2.5508497145224499e-10    6    5    4    1
 1.2046437767659513e-09    6    5    4    2
-1.0171088835786102e-09    6    5    4    3
 1.7289131281739460e-17    6    5    4    4
 7.1694103578828720e-03    6    5    5    1
-2.7607921994917704e-02    6    5    5    2
 1.1773123903151316e-02    6    5    5    3
 1.1937061650394925e-17    6    5    5    4
 2.4194964680486572e-17    6    5    5    5
-4.5759879803860677e-19    6    5    6    1
-5.3765676374353338e-18    6    5    6    2
 1.9816631179193261e-19    6    5    6    3
-1.1287988224514154e-18    6    5    6    4
 2.2873081804961191e-02    6    5    6    5
 4.9937585690481417e-01    6    6    1    1
-2.6732405937501522e-03    6    6    2    1
 4.5290011064958163e-01    6    6    2    2
-6.3395855104792865e-03    6    6    3    1
 5.8840537922302191e-02    6    6    3    2
 3.9741562856737855e-01    6    6    3    3
 8.7932565865522374e-18    6    6    4    1
 5.5225293106262701e-17    6    6    4    2
 9.8253933351985544e-17    6    6    4    3
 3.9955412134238760e-01    6    6    4    4
 2.5450818767378631e-18    6    6    5    1
 7.8875539127056403e-18    6    6    5    2
 2.0951931682339799e-17    6    6    5    3
-1.4076851290256160e-17    6    6    5    4
 3.9955412134238738e-01    6    6    5    5
 1.5545879657922665e-02    6    6    6    1
-7.3877252344508343e-02    6    6    6    2
 3.3907541065232874e-02    6    6    6    3
 9.1194857534669324e-17    6    6    6    4
 1.3261485051522108e-17    6    6    6    5
 4.3477853908985853e-01    6    6    6    6
 2.7422107065371494e-02    7    1    1    1
-4.1503765392695728e-04    7    1    2    1
 1.0974991769736951e-02    7    1    2    2
-2.8363908304838304e-03    7    1    3    1
 2.9749136838018646e-03    7    1    3    2
 4.6765407769228193e-03    7    1    3    3
 3.3620912983925579e-18    7    1    4    1
 1.5598061820297081e-18    7    1    4    2
 4.2976717394156046e-18    7    1    4    3
 8.2802978063828258e-03    7    1    4    4
 6.4150184685598644e-19    7    1    5    1
 9.3394232497789475e-19    7    1    5    2
 9.1434046498215520e-19    7    1    5    3
-4.2070050828433845e-19    7    1    5    4
 8.2802978063828171e-03    7    1    5    5
 7.1679782523081052e-03    7    1    6    1
-7.5120293451951276e-03    7    1    6    2
 2.7225441214104706e-03    7    1    6    3
-2.8566254816243743e-19    7    1    6    4
-8.0140150302478369e-19    7    1    6    5
 1.1499223261500711e-02    7    1    6    6
 4.8791513873756879e-03    7    1    7    1
-3.2774114031428256e-03    7    2    1    1
 1.4420474788618958e-03    7    2    2    1
 3.4605843522773835e-02    7    2    2    2
 1.0331116057807543e-03    7    2    3    1
 5.0314292506649538e-02    7    2    3    2
 6.9699867560688425e-02    7    2    3    3
 1.3821555207943192e-18    7    2    4    1
-2.8795084789153612e-18    7    2    4    2
 2.2007214411894758e-17    7    2    4    3
-6.4233603571272526e-03    7    2    4    4
 8.7438153555918578e-19    7    2    5    1
-1.8352396622890811e-18    7    2    5    2
 8.9499333215131007e-18    7    2    5    3
 8.0862167100217603e-19    7    2    5    4
-6.4233603571272448e-03    7    2    5    5
-3.6703954903682069e-03    7    2    6    1
 6.0581501617315014e-03    7    2    6    2
 1.5513884745643169e-04    7    2    6    3
 1.9770471320899481e-17    7    2    6    4
 5.6871470253495265e-18    7    2    6    5
-3.2804568208919115e-03    7    2    6    6
-1.8685400009996799e-03    7    2    7    1
 5.3243520538246485e-02    7    2    7    2
-9.5003304761677246e-03    7    3    1    1
-2.7824097676344165e-03    7    3    2    1
 1.3216219048834127e-01    7    3    2    2
 6.3718009052583975e-04    7    3    3    1
 1.1596997404045425e-01    7    3    3    2
 1.3079161527245264e-01    7    3    3    3
 5.1662155252333512e-18    7    3    4    1
 1.5177405060361673e-17    7    3    4    2
 6.1387443658519735e-17    7    3    4    3
 3.1692725337389899e-02    7    3    4    4
 1.0119365048357608e-18    7    3    5    1
 1.0458219039454535e-17    7    3    5    2
 1.8262654261296390e-17    7    3    5    3
-5.8228626500078929e-18    7    3    5    4
 3.1692725337389857e-02    7    3    5    5
 1.0007630561707195e-02    7    3    6    1
-1.1982716244283860e-02    7    3    6    2
 2.6994700788835084e-02    7    3    6    3
-9.0837866217359477e-18    7    3    6    4
-3.7288554782100097e-18    7    3    6    5
 7.1025387654135047e-02    7    3    6    6
 5.9655306702662341e-03    7    3    7    1
 5.4310239679155950e-02    7    3    7    2
 1.3086553999171591e-01    7    3    7    3
 7.0457057395403875e-17    7    4    1    1
 3.5452869734247599e-18    7    4    2    1
 7.0941781226402545e-17    7    4    2    2
 1.3596238588951698e-19    7    4    3    1
 3.0653497402372277e-17    7    4    3    2
 1.0263089938634977e-16    7    4    3    3
 1.6637899695073472e-03    7    4    4    1
-1.4873800819893078e-02    7    4    4    2
 2.3818035480770682e-03    7    4    4    3
 4.2223913854840807e-17    7    4    4    4
 2.4508828876850535e-10    7    4    5    1
-7.7871675140347670e-10    7    4    5    2
 8.2406834581629026e-10    7    4    5    3
-2.0309889518399687e-18    7    4    5    4
 4.8344732557771216e-17    7    4    5    5
-6.7582113570872773e-18    7    4    6    1
 2.2635186131460023e-17    7    4    6    2
 3.3643007590524977e-18    7    4    6    3
 1.0815467283631832e-02    7    4    6    4
-3.0471415127129642e-11    7    4    6    5
 7.1633824519930530e-17    7    4    6    6
-5.1865284917306770e-18    7    4    7    1
 4.1034443270156717e-17    7    4    7    2
 1.9187878022442206e-17    7    4    7    3
 1.0779122853214876e-02    7    4    7    4
 9.3418584029178133e-18    7    5    1    1
 1.1534972420794816e-18    7    5    2    1
 8.3149094691322883e-18    7    5    2    2
 6.0161594033473628e-20    7    5    3    1
 7.9625315134234157e-18    7    5    3    2
 1.8327356147266073e-17    7    5    3    3
-2.4508829007534169e-10    7    5    4    1
 7.7871675788929793e-10    7    5    4    2
-8.2406834910486642e-10    7    5    4    3
 3.3662550891759251e-18    7    5    4    4
 1.6637899695073433e-03    7    5    5    1
-1.4873800819893063e-02    7    5    5    2
 2.3818035480770621e-03    7    5    5    3
-3.3075202248616246e-18    7    5    5    4
-2.1108449116789786e-19    7    5    5    5
-2.5782607439770419e-18    7    5    6    1
 7.0159170750964697e-18    7    5    6    2
-8.6634445679899655e-19    7    5    6    3
 3.0471415209513561e-11    7    5    6    4
 1.0815467283631822e-02    7    5    6    5
 7.1288576720393613e-18    7    5    6    6
-1.8274863176928382e-18    7    5    7    1
 1.2001452786820123e-17    7    5    7    2
 3.1310614278938629e-18    7    5    7    3
-1.3706517237677194e-18    7    5    7    4
 1.0779122853214865e-02    7    5    7    5
 1.2532334745171786e-01    7    6    1    1
 1.1992998743027924e-04    7    6    2    1
 3.1331811225439529e-02    7    6    2    2
-2.6178418979251714e-03    7    6    3    1
-2.4890280872260778e-02    7    6    3    2
 3.2544647867931931e-02    7    6    3    3
-7.0175353527505673e-18    7    6    4    1
 5.0779339221629519e-17    7    6    4    2
-1.8596597261875485e-17    7    6    4    3
 5.9957687903291507e-02    7    6    4    4
-1.5002851301535610e-18    7    6    5    1
 8.8816810264257598e-18    7    6    5    2
-5.9517919173904832e-18    7    6    5    3
 1.7799795287810707e-19    7    6    5    4
 5.9957687903291430e-02    7    6    5    5
 1.0461181075417509e-03    7    6    6    1
-4.1457804325558338e-02    7    6    6    2
-9.7387100525344397e-03    7    6    6    3
 2.9273322452340006e-17    7    6    6    4
 3.4016441051584945e-18    7    6    6    5
 1.9555243569964187e-02    7    6    6    6
 2.0394758101738848e-03    7    6    7    1
 8.0078692825695189e-03    7    6    7    2
-6.8934349757532789e-03    7    6    7    3
-1.1053268846104643e-17    7    6    7    4
-2.5466057723478003e-18    7    6    7    5
 4.6338899120219684e-02    7    6    7    6
 3.9150922163156210e-01    7    7    1    1
-7.8224638583655076e-04    7    7    2    1
 4.6219605622506749e-01    7    7    2    2
-1.0636137150297732e-03    7    7    3    1
 1.2100049809323536e-01    7    7    3    2
 4.6181104880659063e-01    7    7    3    3
-1.0899405009007223e-17    7    7    4    1
 1.3048136878872634e-16    7    7    4    2
 7.2446834518996058e-17    7    7    4    3
 3.5980615845795760e-01    7    7    4    4
-1.9134853389924119e-18    7    7    5    1
 2.7365236937373333e-17    7    7    5    2
 1.7354445857248495e-17    7    7    5    3
-2.5004807177757038e-17    7    7    5    4
 3.5980615845795727e-01    7    7    5    5
 6.2735965586847983e-03    7    7    6    1
-3.1354348479041998e-02    7    7    6    2
 3.4369374804175810e-02    7    7    6    3
 5.2748071130684353e-17    7    7    6    4
 6.9439274782112352e-18    7    7    6    5
 3.8847101720336558e-01    7    7    6    6
 4.9090227104593214e-03    7    7    7    1
 6.0639419642089909e-02    7    7    7    2
 1.3739045979829850e-01    7    7    7    3
 1.0604078270492765e-16    7    7    7    4
 1.7964424554316917e-17    7    7    7    5
 8.1635839868191857e-03    7    7    7    6
 4.5640296722199036e-01    7    7    7    7
-1.0453190076916906e-16    8    1    1    1
-1.0938409253380718e-17    8    1    2    1
 5.9160093842179289e-20    8    1    2    2
 1.1190232642555454e-17    8    1    3    1
 1.0537904017048071e-18    8    1    3    2
-1.0601711517745521e-18    8    1    3    3
-1.4169825931442957e-04    8    1    4    1
-1.0803616097890454e-03    8    1    4    2
-4.1319256093486740e-04    8    1    4    3
 8.4741470268187382e-18    8    1    4    4
 2.2832768702801165e-05    8    1    5    1
 1.7409458019257645e-04    8    1    5    2
 6.6582603146324816e-05    8    1    5    3
-1.1512927561684840e-18    8    1    5    4
-5.3881217739296037e-18    8    1    5    5
 7.6136282978078611e-18    8    1    6    1
 1.6350330030711126e-18    8    1    6    2
-2.1585652632863841e-19    8    1    6    3
 2.2783655842221707e-03    8    1    6    4
-3.6714499508756760e-04    8    1    6    5
-1.0682999098055824e-18    8    1    6    6
-1.1281416651324726e-18    8    1    7    1
 2.1606633603456410e-18    8    1    7    2
-4.1734539156961696e-20    8    1    7    3
 1.5466457643019682e-03    8    1    7    4
-2.4923246203103913e-04    8    1    7    5
-9.3749661106346684e-19    8    1    7    6
 2.0535944654575181e-18    8    1    7    7
 1.1144733333822527e-03    8    1    8    1
-9.5439870373433394e-17    8    2    1    1
-3.2745729874282199e-18    8    2    2    1
 2.2124715438260277e-17    8    2    2    2
 1.6524314248067553e-18    8    2    3    1
 5.0594686571105690e-17    8    2    3    2
 1.3233893343590380e-17    8    2    3    3
-2.5401897171387047e-03    8    2    4    1
 1.8278589341618665e-02    8    2    4    2
-2.0107846595819102e-03    8    2    4    3
-7.2048616287112994e-17    8    2    4    4
 4.0933599932034613e-04    8    2    5    1
-2.9454806296697884e-03    8    2    5    2
 3.2402449413496885e-04    8    2    5    3
 7.0292099806789730e-18    8    2    5    4
 1.1802438518419777e-17    8    2    5    5
 5.3628148110028902e-18    8    2    6    1
-4.8513734756062407e-18    8    2    6    2
-3.2724111893066982e-18    8    2    6    3
-1.5492973537323085e-02    8    2    6    4
 2.4965979272680086e-03    8    2    6    5
-2.2798210420036126e-17    8    2    6    6
 4.0809643750665682e-18    8    2    7    1
 8.4474390219330676e-18    8    2    7    2
 6.1751025659787156e-17    8    2    7    3
-1.0400180128438567e-02    8    2    7    4
 1.6759246497915835e-03    8    2    7    5
-4.2901557656592388e-18    8    2    7    6
 1.8218735490761740e-17    8    2    7    7
-1.8883230591894725e-03    8    2    8    1
 1.5292792125576120e-02    8    2    8    2
 1.1982467936473449e-16    8    3    1    1
-1.6731094753155791e-18    8    3    2    1
 9.4785465368024910e-17    8    3    2    2
-2.1088050320570116e-18    8    3    3    1
 3.3833952421560562e-17    8    3    3    2
 8.4909158430635578e-17    8    3    3    3
-3.5673041962560144e-03    8    3    4    1
 1.3289790192182687e-02    8    3    4    2
-1.5161381381494589e-02    8    3    4    3
 1.0506398770329538e-16    8    3    4    4
 5.7484919645163122e-04    8    3    5    1
-2.1415695044187180e-03    8    3    5    2
 2.4431643104305496e-03    8    3    5    3
-7.9633234554435860e-18    8    3    5    4
 2.9067977904925221e-17    8    3    5    5
 4.9265040317999523e-19    8    3    6    1
-3.6569836750197829e-17    8    3    6    2
-3.4208904642316615e-18    8    3    6    3
 4.5317847943411142e-03    8    3    6    4
-7.3026879145832201e-04    8    3    6    5
 4.9557216656718453e-17    8    3    6    6
 8.4250933905519713e-19    8    3    7    1
 4.9446653868115625e-17    8    3    7    2
 4.4784237052697179e-17    8    3    7    3
 6.9029281975041016e-03    8    3    7    4
-1.1123636222075172e-03    8    3    7    5
 4.4747982155840035e-17    8    3    7    6
 1.0907235283007838e-16    8    3    7    7
 2.4959014638566094e-03    8    3    8    1
-9.6632722587321231e-03    8    3    8    2
 2.4676837618346367e-02    8    3    8    3
 5.5888048596321183e-02    8    4    1    1
-2.9582105732786921e-03    8    4    2    1
 7.3033226969102222e-02    8    4    2    2
-7.9841126779810862e-04    8    4    3    1
 1.6551792256316790e-02    8    4    3    2
 4.3744166594265312e-02    8    4    3    3
 3.6123174964096084e-17    8    4    4    1
-9.8063637820766321e-17    8    4    4    2
 1.1048682525646388e-16    8    4    4    3
 6.6463867328124523e-02    8    4    4    4
-3.1549750356958335e-18    8    4    5    1
 1.8108393673683127e-17    8    4    5    2
-7.7535448056673277e-18    8    4    5    3
-9.4533143763970051e-04    8    4    5    4
 5.4731092502972881e-02    8    4    5    5
 8.6060343153163757e-03    8    4    6    1
-3.2046718870526278e-02    8    4    6    2
 1.1624057803740838e-02    8    4    6    3
 5.5201033200967873e-17    8    4    6    4
-4.4570359329038282e-18    8    4    6    5
 6.0437145432846673e-02    8    4    6    6
 5.2115771424787634e-03    8    4    7    1
-7.2036059263767271e-03    8    4    7    2
 2.8091705791439964e-02    8    4    7    3
-9.6670188064680294e-18    8    4    7    4
-4.7530386819085411e-18    8    4    7    5
 7.8053223564710800e-03    8    4    7    6
 4.2140651994198926e-02    8    4    7    7
-4.7076705420075556e-19    8    4    8    1
-1.2869310457599541e-17    8    4    8    2
-1.4001601937861405e-17    8    4    8    3
 3.3945976271769804e-02    8    4    8    4
-9.0060300153925535e-03    8    5    1    1
 4.7669723612418893e-04    8    5    2    1
-1.1768858198195177e-02    8    5    2    2
 1.2865937180640596e-04    8    5    3    1
-2.6672179560422783e-03    8    5    3    2
-7.0491066114923276e-03    8    5    3    3
-3.1047745413991175e-18    8    5    4    1
 1.2168198025065353e-17    8    5    4    2
-1.2457234978064248e-17    8    5    4    3
-8.8195842805717205e-03    8    5    4    4
-1.1299818321639976e-17    8    5    5    1
 7.0406113107951906e-17    8    5    5    2
-5.2768781963266364e-17    8    5    5    3
 5.8663874125757919e-03    8    5    5    4
-1.0710247155851112e-02    8    5    5    5
-1.3868092386542306e-03    8    5    6    1
 5.1641343073292141e-03    8    5    6    2
-1.8731451395251556e-03    8    5    6    3
-6.5645959350598488e-18    8    5    6    4
-1.4091587451005577e-17    8    5    6    5
-9.7390777750016744e-03    8    5    6    6
-8.3981363135496919e-04    8    5    7    1
 1.1608163759952862e-03    8    5    7    2
-4.5268044572703819e-03    8    5    7    3
-2.3527903614568308e-18    8    5    7    4
-1.2249403090254185e-17    8    5    7    5
-1.2577822398883037e-03    8    5    7    6
-6.7907089458151479e-03    8    5    7    7
-6.5920997734169898e-19    8    5    8    1
 2.0249280409603253e-18    8    5    8    2
-7.5831183494516821e-18    8    5    8    3
-4.6295411669633598e-03    8    5    8    4
 5.9627574756807361e-03    8    5    8    5
 3.3723514948536327e-17    8    6    1    1
 2.4461222544712666e-18    8    6    2    1
-2.5034588554916137e-17    8    6    2    2
-1.6007184631495337e-18    8    6    3    1
-3.0216564109223649e-17    8    6    3    2
-1.5434966759240034e-17    8    6    3    3
 8.5191918963289960e-03    8    6    4    1
-3.5928028600860522e-02    8    6    4    2
 2.3666430617424468e-02    8    6    4    3
 3.7479189140599817e-17    8    6    4    4
-1.3728159210065795e-03    8    6    5    1
 5.7895839714188725e-03    8    6    5    2
-3.8137011145327848e-03    8    6    5    3
 4.1157134950778854e-20    8    6    5    4
 4.7133707885366794e-18    8    6    5    5
 6.6367945743217895e-18    8    6    6    1
-3.5717272103757980e-17    8    6    6    2
-2.9506461246039171e-19    8    6    6    3
 1.3247490939833774e-02    8    6    6    4
-2.1347532257558885e-03    8    6    6    5
-1.1968937953040353e-17    8    6    6    6
 3.2283561679667106e-18    8    6    7    1
-4.3935826750993964e-18    8    6    7    2
 1.3679160303130071e-18    8    6    7    3
 5.0834817951898635e-03    8    6    7    4
-8.1917317486493717e-04    8    6    7    5
 4.2714760011885300e-18    8    6    7    6
-6.6362278890266499e-17    8    6    7    7
-1.6496972131258488e-04    8    6    8    1
-5.4429358826445576e-03    8    6    8    2
-1.4428528511075123e-02    8    6    8    3
 7.7295159863037602e-17    8    6    8    4
-5.9770771489881095e-19    8    6    8    5
 2.3588547452348878e-02    8    6    8    6
-2.0049459780073783e-16    8    7    1    1
 4.1176707854409619e-19    8    7    2    1
-1.3661863400294779e-17    8    7    2    2
 1.2104070219462768e-18    8    7    3    1
 1.2243626594755993e-16    8    7    3    2
-1.5295248932157072e-18    8    7    3    3
 7.3798122355437125e-03    8    7    4    1
-2.7534728349683017e-02    8    7    4    2
 2.4686572103879586e-02    8    7    4    3
-1.2447286880765563e-16    8    7    4    4
-1.1892115552954901e-03    8    7    5    1
 4.4370523658082573e-03    8    7    5    2
-3.9780892572297607e-03    8    7    5    3
 1.3183088134503520e-18    8    7    5    4
-1.0670546660909845e-16    8    7    5    5
 1.4531693477221179e-17    8    7    6    1
 2.3146665441269960e-17    8    7    6    2
 4.6196574513305643e-17    8    7    6    3
 5.8517877144856787e-03    8    7    6    4
-9.4298065789287337e-04    8    7    6    5
-2.1607359305555615e-17    8    7    6    6
 7.5787682398977030e-18    8    7    7    1
 2.3778981794150000e-17    8    7    7    2
 1.2597311649756160e-16    8    7    7    3
-1.2038760055209275e-03    8    7    7    4
 1.9399663356349276e-04    8    7    7    5
-7.8254588234824453e-17    8    7    7    6
-1.5532977074595559e-17    8    7    7    7
-1.6681447258842914e-03    8    7    8    1
 3.2125117718743799e-03    8    7    8    2
-2.2620153564166905e-02    8    7    8    3
 8.4439649606272175e-17    8    7    8    4
 5.0046523622547745e-19    8    7    8    5
 2.1371711933422608e-02    8    7    8    6
 2.7738966540202022e-02    8    7    8    7
 4.4184816408680333e-01    8    8    1    1
 1.4974863757201608e-03    8    8    2    1
 3.1568946101869305e-01    8    8    2    2
-1.0433764459626032e-03    8    8    3    1
-3.1277952863656852e-02    8    8    3    2
 3.2502496564651068e-01    8    8    3    3
-4.0350006581753655e-18    8    8    4    1
 3.7135696324755229e-17    8    8    4    2
 5.3135674369604409e-17    8    8    4    3
 3.6173051434657322e-01    8    8    4    4
-1.6023310797136176e-18    8    8    5    1
 1.3985325262824881e-17    8    8    5    2
-4.5925990624439530e-18    8    8    5    3
-4.1102897035237250e-03    8    8    5    4
 3.3688591129235224e-01    8    8    5    5
-6.2318011840668455e-03    8    8    6    1
-4.6733265116282105e-02    8    8    6    2
-1.1478485648995859e-02    8    8    6    3
 1.3216694586901368e-16    8    8    6    4
 1.4347563815860859e-17    8    8    6    5
 2.9367138988572250e-01    8    8    6    6
-2.5700694060661940e-03    8    8    7    1
 1.2826937103777270e-02    8    8    7    2
-2.0175522461210651e-02    8    8    7    3
 1.0818968314134596e-16    8    8    7    4
 1.3839320521422222e-17    8    8    7    5
 5.4151066366893728e-02    8    8    7    6
 2.9025188977785582e-01    8    8    7    7
 9.6174666400624633e-18    8    8    8    1
-1.0171884051006209e-16    8    8    8    2
 1.0146816656019877e-16    8    8    8    3
 1.0198543281089576e-02    8    8    8    4
-1.6434388799196390e-03    8    8    8    5
-4.2346459320131357e-18    8    8    8    6
-2.1647040281464493e-16    8    8    8    7
 3.7800519493540885e-01    8    8    8    8
-3.1135567651358467e-17    9    1    1    1
-3.1935770273225947e-18    9    1    2    1
 2.9877523632929745e-20    9    1    2    2
 3.3540825670550464e-18    9    1    3    1
 6.5366015886765945e-19    9    1    3    2
-2.1775743215659186e-19    9    1    3    3
-2.2832768702805183e-05    9    1    4    1
-1.7409458019257342e-04    9    1    4    2
-6.6582603146328150e-05    9    1    4    3
 2.9974908533110930e-18    9    1    4    4
-1.4169825931442724e-04    9    1    5    1
-1.0803616097890454e-03    9    1    5    2
-4.1319256093486556e-04    9    1    5    3