 &FCI NORB=28,NELEC=14,MS2=0,
  ORBSYM= 1,1,1,1,1,1,1,1,1,1,1,1,1,1,1,1,1,1,1,1,1,1,1,1,1,1,1,1,
  ISYM=1
 &END
 4.7675756822314455e+00    1    1    1    1
 7.0999374854423692e-03    2    1    1    1
 2.3552897832408040e-05    2    1    2    1
 4.6167163379421905e-01    2    2    1    1
-5.7092780477295555e-03    2    2    2    1
 3.5343586353995526e+00    2    2    2    2
 2.4538309876162850e-01    3    1    1    1
 3.2198442494480546e-04    3    1    2    1
-6.1319694932277817e-03    3    1    2    2
 3.4535015510576070e-02    3    1    3    1
 9.1731294607965280e-03    3    2    1    1
 3.7047392669058469e-04    3    2    2    1
-1.4769007733599956e-01    3    2    2    2
-3.0886865634810001e-04    3    2    3    1
 1.7481013821458107e-02    3    2    3    2
 1.0076317504268577e+00    3    3    1    1
 6.8561839190243946e-04    3    3    2    1
 7.4131080037327934e-01    3    3    2    2
-1.7051564746321808e-02    3    3    3    1
 1.6019560727458831e-02    3    3    3    2
 9.7387445033740594e-01    3    3    3    3
-3.1991234530753310e-01    4    1    1    1
-5.9936872611861627e-04    4    1    2    1
-6.3364117227784171e-03    4    1    2    2
-1.5817089025812969e-02    4    1    3    1
-3.0292086445752106e-04    4    1    3    2
-2.6433692997133024e-02    4    1    3    3
 4.9063856008269471e-02    4    1    4    1
 5.9674014980078095e-04    4    2    1    1
 8.5915921655769383e-05    4    2    2    1
-3.3361341368264602e-02    4    2    2    2
-1.9970184762486726e-04    4    2    3    1
 4.4836662034009097e-03    4    2    3    2
 4.4081618312954499e-03    4    2    3    3
-4.6361372070525586e-05    4    2    4    1
 1.1674850827899303e-03    4    2    4    2
-3.3829153606272089e-02    4    3    1    1
-1.3219525767937999e-04    4    3    2    1
 4.5832467134357006e-02    4    3    2    2
-1.3442834994239342e-04    4    3    3    1
 8.5186665568363700e-04    4    3    3    2
 3.8253649870751030e-03    4    3    3    3
 3.4672321552068116e-03    4    3    4    1
 2.5090344519359956e-04    4    3    4    2
 1.3310472388787083e-02    4    3    4    3
 1.0918531583856312e+00    4    4    1    1
 1.1018851978667112e-03    4    4    2    1
 3.6080011779229898e-01    4    4    2    2
 2.6353329630076364e-02    4    4    3    1
 5.0284511147709512e-03    4    4    3    2
 5.9127983658655292e-01    4    4    3    3
 1.0838599713118624e-02    4    4    4    1
 2.1393018728509860e-04    4    4    4    2
-2.7059666844027187e-03    4    4    4    3
 9.0651531035875621e-01    4    4    4    4
-3.8141411372908142e-02    5    1    1    1
-5.2235866950213493e-05    5    1    2    1
 1.0571801239814672e-03    5    1    2    2
-5.1151143384126404e-03    5    1    3    1
 5.4090242539631674e-05    5    1    3    2
 2.4069190019360776e-03    5    1    3    3
 2.8662864144332612e-03    5    1    4    1
 3.2031163601986835e-05    5    1    4    2
 5.1421990439453049e-05    5    1    4    3
-3.1627051344267185e-03    5    1    4    4
 7.6588858877535426e-04    5    1    5    1
-5.9530869306811734e-03    5    2    1    1
 3.7333445923680859e-04    5    2    2    1
-2.1799767312790486e-01    5    2    2    2
 1.5073419288836847e-04    5    2    3    1
 9.6649370677603114e-03    5    2    3    2
-1.4547021139030794e-02    5    2    3    3
 1.7321031333539951e-04    5    2    4    1
 1.9927442099401155e-03    5    2    4    2
-1.7189523625949651e-03    5    2    4    3
-3.6014962654814762e-03    5    2    4    4
-1.0671394071556051e-04    5    2    5    1
 3.0082800229651027e-02    5    2    5    2
-4.6190682033622310e-02    5    3    1    1
-1.0559328632937623e-04    5    3    2    1
 1.9149357264999209e-02    5    3    2    2
 7.2901608206319194e-04    5    3    3    1
 7.4087793347149392e-04    5    3    3    2
-1.0434896677489681e-02    5    3    3    3
 2.2844698779704606e-03    5    3    4    1
 3.0420550400222146e-04    5    3    4    2
 1.7928873989823298e-03    5    3    4    3
-1.2659162090464408e-02    5    3    4    4
-2.6738961283204215e-05    5    3    5    1
-2.6596639291961246e-03    5    3    5    2
 7.3870632897078238e-03    5    3    5    3
 1.7760514471206353e-02    5    4    1    1
 2.6727574972038947e-05    5    4    2    1
 4.9479806048339566e-03    5    4    2    2
 2.2191857837971824e-04    5    4    3    1
 5.7338849858366511e-04    5    4    3    2
 1.1161406100863420e-02    5    4    3    3
-4.9686445698145666e-04    5    4    4    1
 1.6321236403916208e-04    5    4    4    2
-1.0610361811991219e-03    5    4    4    3
 8.5765759561964184e-03    5    4    4    4
-1.3626594255053583e-05    5    4    5    1
-8.6437747524417750e-04    5    4    5    2
 1.1315825114549909e-03    5    4    5    3
 7.5331777825549768e-04    5    4    5    4
 3.2989911717183285e-01    5    5    1    1
-8.3033470172484789e-04    5    5    2    1
 7.8390253028693391e-01    5    5    2    2
-3.0335927189619905e-03    5    5    3    1
-1.5460161461943931e-02    5    5    3    2
 4.3553652137906934e-01    5    5    3    3
-3.2438770955082242e-03    5    5    4    1
-3.4522442861557880e-03    5    5    4    2
 1.3199434554221241e-02    5    5    4    3
 2.7378187666274861e-01    5    5    4    4
 2.1658273216139818e-05    5    5    5    1
 6.3262502960546845e-03    5    5    5    2
-5.6510363652723947e-03    5    5    5    3
-3.4311659589493248e-03    5    5    5    4
 6.4694074419781289e-01    5    5    5    5
 4.7966333215833821e-16    6    1    1    1
 8.6679616328824375e-19    6    1    2    1
-7.8113205903713202e-17    6    1    2    2
 2.5924248561140108e-17    6    1    3    1
-6.2183086959411464e-19    6    1    3    2
-1.7774838925950379e-17    6    1    3    3
-3.2069592210447251e-17    6    1    4    1
-3.7205339036162752e-19    6    1    4    2
-3.8142672039679862e-17    6    1    4    3
 2.9275172675142792e-17    6    1    4    4
-1.2268076814216042e-17    6    1    5    1
 7.4233533825421207e-19    6    1    5    2
-1.2294746009988037e-18    6    1    5    3
-9.1678833495740360e-19    6    1    5    4
-4.8498211214530035e-17    6    1    5    5
 2.1942067935454699e-02    6    1    6    1
 2.3652700493169763e-17    6    2    1    1
-7.8738306913215579e-19    6    2    2    1
-3.8530936103001229e-16    6    2    2    2
-1.2702776927224580e-18    6    2    3    1
 3.2821101872185635e-17    6    2    3    2
 1.6966660572368564e-17    6    2    3    3
-8.5746405648292606e-19    6    2    4    1
 8.7867799258898558e-18    6    2    4    2
 2.0519162064874900e-19    6    2    4    3
 1.2765662272949733e-17    6    2    4    4
-1.2186852056962496e-18    6    2    5    1
 2.6613622819418967e-17    6    2    5    2
-7.4465135591547148e-18    6    2    5    3
-7.6232773039928451e-19    6    2    5    4
-3.9051419109381379e-17    6    2    5    5
-1.0714606354308797e-04    6    2    6    1
 4.6212336360026644e-03    6    2    6    2
 2.2894709450132773e-16    6    3    1    1
-1.6660320365873247e-18    6    3    2    1
 5.2958312958323369e-16    6    3    2    2
-1.1259234469811934e-17    6    3    3    1
 1.3325167511757698e-17    6    3    3    2
 2.6904860298655965e-16    6    3    3    3
-4.0395305893542028e-17    6    3    4    1
 4.5531273551250304e-18    6    3    4    2
 1.2354521954942891e-16    6    3    4    3
-6.3831273152861432e-17    6    3    4    4
 1.7870339504517861e-18    6    3    5    1
-2.2630649458578045e-17    6    3    5    2
-3.5090542872582452e-17    6    3    5    3
-1.9162824974608347e-18    6    3    5    4
 1.6741755167461707e-16    6    3    5    5
-1.5200164118227695e-02    6    3    6    1
 4.3080474454202248e-03    6    3    6    2
 8.4787236449741593e-02    6    3    6    3
-6.8221030766581047e-17    6    4    1    1
-3.7167538881784723e-20    6    4    2    1
 1.6299507353312551e-17    6    4    2    2
-3.4233030361749499e-17    6    4    3    1
 1.7954224226410339e-18    6    4    3    2
 1.4179511752259007e-16    6    4    3    3
 8.1949751298006785e-18    6    4    4    1
 7.6243559780190545e-19    6    4    4    2
-1.2705381875957876e-16    6    4    4    3
 3.0548325447950074e-18    6    4    4    4
-8.1657556276466278e-19    6    4    5    1
-3.6295514195735524e-18    6    4    5    2
 1.9118484741015620e-18    6    4    5    3
-5.7331344127618193e-18    6    4    5    4
-2.9436177376152704e-17    6    4    5    5
 1.7648436931434964e-02    6    4    6    1
-7.9827020357510308e-05    6    4    6    2
-4.1733010361964779e-02    6    4    6    3
 7.3679759779765319e-02    6    4    6    4
-1.0241678670123763e-16    6    5    1    1
-1.8671094136774204e-18    6    5    2    1
 1.0294838766326747e-16    6    5    2    2
-3.4831179070070196e-18    6    5    3    1
-8.6953608107056888e-18    6    5    3    2
-5.1742766211745335e-17    6    5    3    3
 4.3568730330335854e-18    6    5    4    1
-1.5358838437942236e-18    6    5    4    2
 1.3916848482717839e-18    6    5    4    3
-2.3852885788338950e-17    6    5    4    4
-5.6698151228906447e-18    6    5    5    1
-5.8913825380569205e-18    6    5    5    2
-2.2898575339549714e-17    6    5    5    3
-7.6540008006238254e-18    6    5    5    4
 2.8937236415981024e-17    6    5    5    5
 9.9274759705085167e-04    6    5    6    1
 4.1587478138622493e-03    6    5    6    2
 1.1789194316864867e-02    6    5    6    3
 9.7438059278565551e-06    6    5    6    4
 1.9575399444579148e-02    6    5    6    5
 9.0112174679856138e-01    6    6    1    1
 6.7198158297038073e-04    6    6    2    1
 5.2784706934115455e-01    6    6    2    2
 5.6507393411590640e-04    6    6    3    1
 5.9480881384523085e-03    6    6    3    2
 6.8998924078692658e-01    6    6    3    3
-6.9809135450615359e-03    6    6    4    1
 1.4133456022947443e-03    6    6    4    2
-1.6382927509972462e-02    6    6    4    3
 6.2854178060984589e-01    6    6    4    4
 1.6060877962791970e-04    6    6    5    1
-4.7300422298970912e-03    6    6    5    2
-5.2811307206398180e-03    6    6    5    3
 9.8619018482266462e-03    6    6    5    4
 3.7440811360335535e-01    6    6    5    5
-1.0058682200433713e-16    6    6    6    1
 3.5205167970995731e-17    6    6    6    2
 4.9346654770737451e-16    6    6    6    3
-2.4209265930146694e-16    6    6    6    4
 6.5231469510856795e-17    6    6    6    5
 6.4530563495755699e-01    6    6    6    6
 1.1149881330088564e-17    7    1    1    1
 1.2214448085216729e-19    7    1    2    1
-4.0722383504176929e-17    7    1    2    2
 1.9590196325227162e-18    7    1    3    1
-5.3453400123926756e-20    7    1    3    2
-2.8861144134408529e-17    7    1    3    3
-2.8641347668312661e-18    7    1    4    1
-2.0182517992341440e-20    7    1    4    2
-1.1172774699961437e-18    7    1    4    3
-1.5907710079889936e-17    7    1    4    4
 5.1057062864556190e-20    7    1    5    1
 2.6939036927390359e-19    7    1    5    2
-1.8174032832974456e-18    7    1    5    3
 2.1209701726436370e-19    7    1    5    4
-2.5786845122875942e-17    7    1    5    5
 1.4430495253843784e-14    7    1    6    1
 8.2147321387902496e-13    7    1    6    2
 4.9305469687656909e-12    7    1    6    3
 6.4028764981236174e-12    7    1    6    4
 2.8985934894394769e-12    7    1    6    5
-2.2031312836893004e-17    7    1    6    6
 2.1942067938186781e-02    7    1    7    1
 7.1561627389637554e-19    7    2    1    1
-1.1832231755545880e-18    7    2    2    1
 3.5128538430685599e-18    7    2    2    2
-5.5625953960104413e-19    7    2    3    1
 2.7049218943771388e-19    7    2    3    2
 1.8358571073345408e-18    7    2    3    3
-1.4697553325922393e-19    7    2    4    1
-1.1941782992268940e-18    7    2    4    2
-5.9628307891008643e-19    7    2    4    3
 7.9731193905221998e-20    7    2    4    4
-8.3065484533669817e-19    7    2    5    1
 2.3228213753504006e-19    7    2    5    2
 1.4063885130905045e-18    7    2    5    3
-9.0285370801139022e-19    7    2    5    4
 9.6025377213926676e-19    7    2    5    5
-8.2112550201333639e-13    7    2    6    1
-1.3196322184262900e-14    7    2    6    2
 1.4019655910632779e-11    7    2    6    3
-3.6493961684399702e-12    7    2    6    4
 2.0217040949582810e-12    7    2    6    5
 1.3213007528014999e-18    7    2    6    6
-1.0714606352075145e-04    7    2    7    1
 4.6212336341027414e-03    7    2    7    2
 8.1010147822426552e-17    7    3    1    1
-1.0344630721040653e-18    7    3    2    1
 8.1868713310219558e-17    7    3    2    2
-4.4782514304057835e-18    7    3    3    1
 9.9923480833701662e-19    7    3    3    2
 1.0102675800217701e-16    7    3    3    3
-2.6216738885849458e-18    7    3    4    1
-8.7597984789476125e-19    7    3    4    2
-6.8969305322842554e-18    7    3    4    3
 5.6436011423641118e-17    7    3    4    4
-2.7357910743004027e-18    7    3    5    1
 2.6084066020065781e-19    7    3    5    2
 1.0568978300855228e-17    7    3    5    3
-3.2534187771921460e-18    7    3    5    4
 6.6300200946511972e-17    7    3    5    5
-4.9166761667606274e-12    7    3    6    1
-1.4041320809967165e-11    7    3    6    2
-1.4712189460588224e-13    7    3    6    3
-4.2836450161885253e-11    7    3    6    4
-4.0265750550397213e-11    7    3    6    5
 7.6319989778958749e-17    7    3    6    6
-1.5200164119174788e-02    7    3    7    1
 4.3080474441600661e-03    7    3    7    2
 8.4787236444792913e-02    7    3    7    3
-9.3131119806767823e-17    7    4    1    1
 1.4290595949466938e-22    7    4    2    1
-7.4052451343128844e-17    7    4    2    2
-1.3069167664910903e-18    7    4    3    1
-3.9779751304511419e-19    7    4    3    2
-7.9865285509880261e-17    7    4    3    3
 1.8268216088693053e-19    7    4    4    1
-7.4805250699283416e-20    7    4    4    2
 1.0104270511547721e-18    7    4    4    3
-7.1679549551691391e-17    7    4    4    4
 8.9675413339635060e-19    7    4    5    1
 4.9634492343634169e-19    7    4    5    2
-3.6697730824756276e-18    7    4    5    3
 9.6313027507070327e-19    7    4    5    4
-5.2778674555832911e-17    7    4    5    5
-6.4165293341423365e-12    7    4    6    1
 3.6546927884724236e-12    7    4    6    2
 4.3108895977256155e-11    7    4    6    3
-1.1901441636186602e-13    7    4    6    4
 1.9954699823254201e-11    7    4    6    5
-6.9411075599307189e-17    7    4    6    6
 1.7648436932882063e-02    7    4    7    1
-7.9827020329985220e-05    7    4    7    2
-4.1733010359745776e-02    7    4    7    3
 7.3679759782102380e-02    7    4    7    4
 2.9068187935530583e-17    7    5    1    1
-1.0265480217598390e-18    7    5    2    1
 2.8122341206950923e-17    7    5    2    2
-1.8472235436964082e-18    7    5    3    1
 7.9477617188688073e-19    7    5    3    2
 3.5099723982648128e-17    7    5    3    3
-4.9619494861647715e-19    7    5    4    1
-9.1783355097386792e-19    7    5    4    2
-2.3041082627419450e-18    7    5    4    3
 2.1178940661073656e-17    7    5    4    4
-3.2217757939603497e-18    7    5    5    1
 2.4222198640963750e-19    7    5    5    2
 7.7555269850762901e-18    7    5    5    3
-3.8332037854712984e-18    7    5    5    4
 2.3109136636717112e-17    7    5    5    5
-2.8928148917417689e-12    7    5    6    1
-2.0443481230186124e-12    7    5    6    2
 4.0181910335163032e-11    7    5    6    3
-1.9911718058467477e-11    7    5    6    4
-4.8635965222394457e-14    7    5    6    5
 2.8200593270719439e-17    7    5    6    6
 9.9274759736235098e-04    7    5    7    1
 4.1587478121733381e-03    7    5    7    2
 1.1789194312304000e-02    7    5    7    3
 9.7438071009452554e-06    7    5    7    4
 1.9575399436821884e-02    7    5    7    5
 3.2071924583853910e-13    7    6    1    1
 9.2469601375331908e-16    7    6    2    1
-2.4092142043747910e-13    7    6    2    2
 6.8180286908552746e-15    7    6    3    1
 3.8615467159051362e-15    7    6    3    2
-6.5167738854139655e-15    7    6    3    3
-3.4659750986280416e-15    7    6    4    1
 7.2914252895267542e-16    7    6    4    2
 4.8413338714229328e-14    7    6    4    3
 1.2242649340163704e-13    7    6    4    4
-2.5775212010507692e-16    7    6    5    1
 1.6904333489346990e-16    7    6    5    2
-1.9882132076101213e-14    7    6    5    3
 8.3047017576237024e-15    7    6    5    4
-1.3906515838142036e-13    7    6    5    5
-2.7632705230624710e-18    7    6    6    1
 7.5909811859046982e-19    7    6    6    2
 1.1638891066942590e-17    7    6    6    3
-7.5887788794525306e-18    7    6    6    4
 4.9708991339766918e-18    7    6    6    5
 1.0963316555902381e-13    7    6    6    6
-3.2525086743974171e-17    7    6    7    1
 1.1037094828240391e-17    7    6    7    2
 1.2783722675994402e-16    7    6    7    3
-8.7945187113828288e-17    7    6    7    4
 3.1525219088063471e-17    7    6    7    5
 2.7667104888107745e-02    7    6    7    6
 9.0112174685621516e-01    7    7    1    1
 6.7198158312352678e-04    7    7    2    1
 5.2784706930585612e-01    7    7    2    2
 5.6507393505224475e-04    7    7    3    1
 5.9480881391545878e-03    7    7    3    2
 6.8998924079628265e-01    7    7    3    3
-6.9809135453155523e-03    7    7    4    1
 1.4133456023794960e-03    7    7    4    2
-1.6382927510628677e-02    7    7    4    3
 6.2854178064224264e-01    7    7    4    4
 1.6060877954891705e-04    7    7    5    1
-4.7300422299665556e-03    7    7    5    2
-5.2811307233092365e-03    7    7    5    3
 9.8619018489494430e-03    7    7    5    4
 3.7440811358191822e-01    7    7    5    5
-3.4951640218810282e-17    7    7    6    1
 1.4903045522148339e-17    7    7    6    2
 2.4361321299694006e-16    7    7    6    3
-6.2152283744391167e-17    7    7    6    4
 1.0959555730149581e-17    7    7    6    5
 5.8997142520127721e-01    7    7    6    6
-2.7717229475711789e-17    7    7    7    1
 5.3565355587042230e-19    7    7    7    2
 8.9203050120080228e-17    7    7    7    3
-8.6583512153394649e-17    7    7    7    4
 2.6809806329787712e-17    7    7    7    5
 1.0974264562362249e-13    7    7    7    6
 6.4530563499742843e-01    7    7    7    7
 6.8066325929382050e-16    8    1    1    1
 9.3162748429764778e-19    8    1    2    1
 6.6075206332557344e-17    8    1    2    2
 3.7077397459945560e-17    8    1    3    1
-9.3174035462685318e-19    8    1    3    2
 8.5175165344517503e-17    8    1    3    3
-3.8763544673735477e-17    8    1    4    1
-3.6271702350195381e-19    8    1    4    2
-3.8826762310399591e-17    8    1    4    3
 1.0460337101264823e-16    8    1    4    4
-1.4983713788616423e-17    8    1    5    1
 2.6732608673984427e-19    8    1    5    2
 1.3072209821756124e-18    8    1    5    3
-3.7532899185621741e-20    8    1    5    4
 4.6816896442624142e-17    8    1    5    5
 2.4751173533749792e-02    8    1    6    1
-1.2897978189059325e-04    8    1    6    2
-1.6559858959099089e-02    8    1    6    3
 1.9596492541389555e-02    8    1    6    4
 9.6737619794652185e-04    8    1    6    5
-2.1864734598560938e-17    8    1    6    6
 1.0485530605392356e-09    8    1    7    1
-6.4798118128744986e-12    8    1    7    2
-7.0807395241602886e-10    8    1    7    3
 8.1708615307673130e-10    8    1    7    4
 3.7315595021326807e-11    8    1    7    5
-1.2630925466625676e-18    8    1    7    6
 4.5131365475468568e-17    8    1    7    7
 2.7957554823122423e-02    8    1    8    1
-2.6474302905106607e-17    8    2    1    1
 2.0785626695246320e-18    8    2    2    1
 4.1376706109403811e-16    8    2    2    2
 1.8154631219841711e-18    8    2    3    1
-3.4362038572066311e-17    8    2    3    2
-1.1497909223288809e-17    8    2    3    3
 1.0201130785282332e-18    8    2    4    1
-9.7695971165749101e-18    8    2    4    2
-1.7827949670621555e-19    8    2    4    3
-1.4937943181183582e-17    8    2    4    4
 2.1989924876414576e-18    8    2    5    1
-2.2893645927037391e-17    8    2    5    2
 1.2181766443425507e-17    8    2    5    3
 1.6396429527619316e-18    8    2    5    4
 5.0654409094144276e-17    8    2    5    5
 2.7636995122113354e-04    8    2    6    1
-8.3883436464619425e-03    8    2    6    2
-7.3891710635723166e-03    8    2    6    3
 1.3699586977439563e-04    8    2    6    4
-7.4636681718870798e-03    8    2    6    5
-5.3711505519913018e-17    8    2    6    6
 1.0490588625462220e-11    8    2    7    1
-3.6000260900847312e-10    8    2    7    2
-2.9187356897650836e-10    8    2    7    3
 2.8580766870644467e-13    8    2    7    4
-3.1441887670468456e-10    8    2    7    5
-1.1717573728541136e-18    8    2    7    6
-1.8975555907025093e-17    8    2    7    7
 3.1925282403689120e-04    8    2    8    1
 1.5268361274303172e-02    8    2    8    2
-2.0371972207232722e-17    8    3    1    1
 1.4128125845230421e-18    8    3    2    1
-1.3576937197881055e-16    8    3    2    2
 7.5295397461209823e-19    8    3    3    1
 1.8544644129314582e-18    8    3    3    2
-1.8529413239478570e-17    8    3    3    3
-2.8269912518927021e-17    8    3    4    1
-3.7311695098278042e-20    8    3    4    2
 4.1347962115278058e-17    8    3    4    3
-1.6229838254212570e-16    8    3    4    4
 5.6146162393380267e-18    8    3    5    1
 1.2832113004208819e-17    8    3    5    2
 1.4129608958880742e-17    8    3    5    3
 2.8430470687410689e-18    8    3    5    4
 1.4165462288468928e-17    8    3    5    5
-9.1934087124489194e-03    8    3    6    1
-3.4311806082969491e-03    8    3    6    2
 8.6040786015505553e-03    8    3    6    3
-1.8536066992131464e-02    8    3    6    4
-1.2016014386963089e-02    8    3    6    5
-4.9983666412897441e-17    8    3    6    6
-4.0018916689734092e-10    8    3    7    1
-1.4746768059319512e-10    8    3    7    2
 4.7613522211272928e-10    8    3    7    3
-8.1102657465000177e-10    8    3    7    4
-5.0139805962650137e-10    8    3    7    5
-3.8465093610289569e-18    8    3    7    6
-4.9083768086602183e-17    8    3    7    7
-9.6904782497746270e-03    8    3    8    1
 5.7178436149493217e-03    8    3    8    2
 2.7072188343635277e-02    8    3    8    3
-4.0653300167259462e-17    8    4    1    1
 5.0662150005660488e-19    8    4    2    1
-7.6488794216057846e-17    8    4    2    2
-2.7512076787364294e-17    8    4    3    1
-4.2399128851855326e-20    8    4    3    2
 8.1344432307506695e-17    8    4    3    3
 1.3469791350348970e-17    8    4    4    1
-2.8324235763745794e-19    8    4    4    2
-1.0332216074281120e-16    8    4    4    3
 9.3316601564277021e-17    8    4    4    4
-8.0070698748863701e-19    8    4    5    1
 4.4464548220256403e-18    8    4    5    2
 6.3483544419394945e-18    8    4    5    3
-5.5972725281676844e-18    8    4    5    4
-8.4106683780501161e-18    8    4    5    5
 1.6698532427785111e-02    8    4    6    1
-1.3325149437946712e-03    8    4    6    2
-3.6374423267180732e-02    8    4    6    3
 6.0951889415255686e-02    8    4    6    4
-1.8061238051562474e-03    8    4    6    5
-1.9217220580712436e-16    8    4    6    6
 6.6615723077424392e-10    8    4    7    1
-5.8259934239675519e-11    8    4    7    2
-1.4369706098529890e-09    8    4    7    3
 2.2774448319168076e-09    8    4    7    4
-8.1339517798560770e-11    8    4    7    5
-2.4754615499393522e-18    8    4    7    6
-2.9038801406726792e-17    8    4    7    7
 1.8563635356246163e-02    8    4    8    1
 2.2182896949590673e-03    8    4    8    2
-1.2063660106110353e-02    8    4    8    3
 5.4578402401647255e-02    8    4    8    4
-2.8112980780932028e-16    8    5    1    1
 2.3085715112219757e-18    8    5    2    1
-7.1606846257895531e-17    8    5    2    2
 1.5519490771998179e-20    8    5    3    1
 4.2633849683114085e-18    8    5    3    2
-8.5218640899383023e-17    8    5    3    3
 7.1880410954626765e-18    8    5    4    1
 3.1676083684345919e-19    8    5    4    2
-7.8223843749779048e-18    8    5    4    3
-1.5821782272700267e-16    8    5    4    4
 9.2935388362424078e-18    8    5    5    1
 1.3674357125505266e-17    8    5    5    2
 4.8368358141665800e-17    8    5    5    3
 6.0016235374312102e-18    8    5    5    4
 7.2255019027871902e-17    8    5    5    5
 2.7561069978850944e-03    8    5    6    1
-7.4539746582469105e-03    8    5    6    2
-2.9886550868796994e-02    8    5    6    3
 8.9389321199913937e-03    8    5    6    4
-3.3722839675823131e-02    8    5    6    5
-3.1436736910745708e-16    8    5    6    6
 1.0730964416220471e-10    8    5    7    1
-2.9976882637835088e-10    8    5    7    2
-1.1114616001492411e-09    8    5    7    3
 3.1333644493790299e-10    8    5    7    4
-1.2844666093622349e-09    8    5    7    5
-6.4203479452965084e-18    8    5    7    6
-1.7039016832593289e-16    8    5    7    7
 3.1019839784838387e-03    8    5    8    1
 1.3447229649229789e-02    8    5    8    2
 1.2942310185617360e-02    8    5    8    3
 1.0853359769497879e-02    8    5    8    4
 6.1957682887323999e-02    8    5    8    5
 4.2444184325183171e-01    8    6    1    1
 9.4526730840649355e-04    8    6    2    1
-1.5313835289355715e-01    8    6    2    2
 6.6642978369189773e-03    8    6    3    1
 3.3738564709671777e-03    8    6    3    2
 9.9209135322486305e-02    8    6    3    3
-2.5697100368966474e-03    8    6    4    1
 2.2317330142921426e-04    8    6    4    2
-2.0275775017056574e-02    8    6    4    3
 2.3142294321745441e-01    8    6    4    4
-7.6090838078296161e-04    8    6    5    1
-4.6354914124908893e-04    8    6    5    2
-1.6598890493477618e-02    8    6    5    3
 3.7381420425510480e-03    8    6    5    4
-9.3553295548958776e-02    8    6    5    5
-2.6561042622016371e-17    8    6    6    1
-7.6700814478057295e-18    8    6    6    2
-4.0213356286375557e-17    8    6    6    3
-1.1954818905898461e-16    8    6    6    4
-1.1833912062900714e-16    8    6    6    5
 1.3705189888228500e-01    8    6    6    6
 4.5861683739374453e-18    8    6    7    1
-9.8156412814083181e-19    8    6    7    2
-7.2450487110322358e-18    8    6    7    3
-3.8535206222725039e-18    8    6    7    4
-3.3667449472341221e-18    8    6    7    5
 3.7006234683735551e-10    8    6    7    6
 1.1940636192217358e-01    8    6    7    7
-4.1074991415325465e-17    8    6    8    1
 1.9877861692943745e-17    8    6    8    2
 6.7922846290783303e-17    8    6    8    3
-8.1050188729672567e-17    8    6    8    4
 2.9711613402450459e-17    8    6    8    5
 1.7071648029853650e-01    8    6    8    6
 1.7439265546077893e-08    8    7    1    1
 3.8789534587293257e-11    8    7    2    1
-6.1848309963487730e-09    8    7    2    2
 2.5674914679473764e-10    8    7    3    1
 1.3737518255139916e-10    8    7    3    2
 4.1800050114644834e-09    8    7    3    3
-1.3498273441776066e-10    8    7    4    1
 9.6839199029520010e-12    8    7    4    2
-8.3302359712430980e-10    8    7    4    3
 9.1227146767639276e-09    8    7    4    4
-2.9556423075695972e-11    8    7    5    1
-1.2557361450430754e-11    8    7    5    2
-6.8418628580570833e-10    8    7    5    3
 1.5114978051775002e-10    8    7    5    4
-3.6355100464696721e-09    8    7    5    5
 1.2927844563138775e-19    8    7    6    1
-5.5145622884015658e-19    8    7    6    2
-5.2964987662614929e-18    8    7    6    3
 1.4564467443653789e-18    8    7    6    4
-3.5542475971040349e-18    8    7    6    5
 4.8350082808778177e-09    8    7    6    6
-2.2366832492984118e-17    8    7    7    1
-8.0646261423177571e-18    8    7    7    2
 2.6633053132275671e-18    8    7    7    3
-3.5449484860716237e-17    8    7    7    4
-3.4292566903605587e-17    8    7    7    5
 8.8227684944656645e-03    8    7    7    6
 5.5747878236976108e-09    8    7    7    7
-1.2594414356307668e-18    8    7    8    1
 7.6459071456395892e-19    8    7    8    2
 2.4004194355921210e-18    8    7    8    3
 5.5546905928021186e-19    8    7    8    4
 4.8717524794244867e-18    8    7    8    5
 6.2035597387607653e-09    8    7    8    6
 1.6221404819392302e-02    8    7    8    7
 8.2457743370280545e-01    8    8    1    1
 2.5247138551417954e-04    8    8    2    1
 6.8126631148243755e-01    8    8    2    2
 3.6015990944429110e-03    8    8    3    1
 5.4710233756066057e-04    8    8    3    2
 6.3518595919884080e-01    8    8    3    3
-6.9456371990843655e-03    8    8    4    1
 3.2847034031126330e-04    8    8    4    2
-2.4132035003014791e-03    8    8    4    3
 5.4902099443757735e-01    8    8    4    4
-4.1665781868804305e-04    8    8    5    1
-3.5264161629977812e-03    8    8    5    2
-2.8358247700108717e-04    8    8    5    3
 7.8835911138538141e-03    8    8    5    4
 4.7088563431371422e-01    8    8    5    5
-9.6910009362817835e-17    8    8    6    1
 2.9611788430681950e-17    8    8    6    2
 4.4152903441787264e-16    8    8    6    3
-1.9889973552855526e-16    8    8    6    4
 1.0997800652783755e-16    8    8    6    5
 5.8507403444923700e-01    8    8    6    6
-2.2900519099073467e-17    8    8    7    1
 1.0978092459454623e-18    8    8    7    2
 6.9883057391435784e-17    8    8    7    3
-6.2134244540265791e-17    8    8    7    4
 2.7113731798206626e-17    8    8    7    5
 1.6577060380063675e-09    8    8    7    6
 5.4343475716019618e-01    8    8    7    7
-4.2271925425888122e-18    8    8    8    1
-5.3606053372819802e-17    8    8    8    2
-6.3031099662635903e-17    8    8    8    3
-1.7339910092270337e-16    8    8    8    4
-3.1148823262154486e-16    8    8    8    5
 6.2228871230478051e-02    8    8    8    6
 2.5957740334085272e-09    8    8    8    7
 5.9990053753466821e-01    8    8    8    8
 6.2567468242122202e-17    9    1    1    1
 4.6579880599034967e-20    9    1    2    1
 5.9682995563021103e-17    9    1    2    2
 2.2779726827106270e-18    9    1    3    1
-2.3535927877369157e-19    9    1    3    2
 3.6545336072183331e-17    9    1    3    3
-2.5978009797421818e-18    9    1    4    1
 3.8768611327141233e-20    9    1    4    2
 9.6274459924546240e-19    9    1    4    3
 2.4568455963834585e-17    9    1    4    4
 6.6628116206726126e-20    9    1    5    1
-3.6929406073052879e-19    9    1    5    2
 4.0683366161341743e-20    9    1    5    3