 &FCI NORB=18,NELEC=6,MS2=0,
  ORBSYM= 1,1,1,1,1,1,1,1,1,1,1,1,1,1,1,1,1,1,
  ISYM=1
 &END
 1.6758499113063932e+00    1    1    1    1
 1.8196006172839291e-01    2    1    1    1
 2.5489236595355028e-02    2    1    2    1
 4.0623642626685463e-01    2    2    1    1
 7.0709080272432334e-02    2    2    2    1
 3.2113299729685230e-01    2    2    2    2
 6.7890109942947635e-03    3    1    3    1
 1.1283668185295557e-02    3    2    3    1
 6.9507777931605702e-02    3    2    3    2
 3.8554552572010847e-01    3    3    1    1
 6.6734057302091296e-02    3    3    2    1
 3.0500026132615171e-01    3    3    2    2
 3.1497504337900062e-01    3    3    3    3
 6.7890109942947635e-03    4    1    4    1
 1.1283668185295557e-02    4    2    4    1
 6.9507777931605702e-02    4    2    4    2
 1.7780724872090856e-02    4    3    4    3
 3.8554552572010847e-01    4    4    1    1
 6.6734057302091296e-02    4    4    2    1
 3.0500026132615171e-01    4    4    2    2
 2.7941359363481888e-01    4    4    3    3
 3.1497504337900062e-01    4    4    4    4
 6.7890109942947635e-03    5    1    5    1
 1.1283668185295557e-02    5    2    5    1
 6.9507777931605702e-02    5    2    5    2
 1.7780724872090856e-02    5    3    5    3
 1.7780724872090856e-02    5    4    5    4
 3.8554552572010847e-01    5    5    1    1
 6.6734057302091296e-02    5    5    2    1
 3.0500026132615171e-01    5    5    2    2
 2.7941359363481888e-01    5    5    3    3
 2.7941359363481888e-01    5    5    4    4
 3.1497504337900062e-01    5    5    5    5
 1.6503372156767174e-01    6    1    1    1
 2.1616816698875812e-02    6    1    2    1
 5.6436223247114795e-02    6    1    2    2
 5.3351804909819861e-02    6    1    3    3
 5.3351804909819861e-02    6    1    4    4
 5.3351804909819861e-02    6    1    5    5
 1.8659202294347491e-02    6    1    6    1
 2.8413490809005992e-01    6    2    1    1
 4.9329005395772972e-02    6    2    2    1
 2.3108612704536644e-01    6    2    2    2
 2.2117603940972330e-01    6    2    3    3
 2.2117603940972330e-01    6    2    4    4
 2.2117603940972330e-01    6    2    5    5
 3.9395004472292432e-02    6    2    6    1
 1.6828060984949217e-01    6    2    6    2
 7.6120434612334184e-03    6    3    3    1
 5.2247402587394166e-02    6    3    3    2
 4.1262928648707453e-02    6    3    6    3
 7.6120434612334184e-03    6    4    4    1
 5.2247402587394166e-02    6    4    4    2
 4.1262928648707453e-02    6    4    6    4
 7.6120434612334184e-03    6    5    5    1
 5.2247402587394166e-02    6    5    5    2
 4.1262928648707453e-02    6    5    6    5
 2.6762349278994407e-01    6    6    1    1
 4.6533536695649101e-02    6    6    2    1
 2.3260131025992892e-01    6    6    2    2
 2.2617538481718880e-01    6    6    3    3
 2.2617538481718880e-01    6    6    4    4
 2.2617538481718880e-01    6    6    5    5
 3.7137743873380466e-02    6    6    6    1
 1.7369769276035121e-01    6    6    6    2
 1.9070943237123833e-01    6    6    6    6
 8.8645668953449090e-04    7    1    3    1
 1.6773741909493739e-03    7    1    3    2
 1.1303053547695231e-03    7    1    6    3
 1.1777458893210576e-04    7    1    7    1
 3.5749936051957211e-03    7    2    3    1
 2.9867080729855867e-02    7    2    3    2
 2.4069478908247774e-02    7    2    6    3
 5.4158692335736338e-04    7    2    7    1
 1.4241150884559997e-02    7    2    7    2
 1.6596849968433725e-01    7    3    1    1
 2.9204763717628424e-02    7    3    2    1
 1.4920805933632525e-01    7    3    2    2
 1.5610008791136309e-01    7    3    3    3
 1.3903331943597563e-01    7    3    4    4
 1.3903331943597563e-01    7    3    5    5
 2.3233118050700965e-02    7    3    6    1
 1.1103167329865864e-01    7    3    6    2
 1.1998110377482506e-01    7    3    6    6
 8.2758022366611270e-02    7    3    7    3
 8.5333842376937308e-03    7    4    4    3
 4.9305450760940995e-03    7    4    7    4
 8.5333842376937308e-03    7    5    5    3
 4.9305450760940995e-03    7    5    7    5
 3.3928204679973062e-03    7    6    3    1
 3.5094575503888600e-02    7    6    3    2
 3.1250997975173674e-02    7    6    6    3
 5.1666599293351126e-04    7    6    7    1
 1.8983864889974583e-02    7    6    7    2
 3.1784905395206391e-02    7    6    7    6
 1.7978084917903853e-01    7    7    1    1
 3.1831381380879348e-02    7    7    2    1
 1.7541201441833296e-01    7    7    2    2
 1.8344127628575710e-01    7    7    3    3
 1.6861135073923728e-01    7    7    4    4
 1.6861135073923728e-01    7    7    5    5
 2.5275161908520506e-02    7    7    6    1
 1.3478232673020879e-01    7    7    6    2
 1.5892452697603199e-01    7    7    6    6
 1.0522125425713370e-01    7    7    7    3
 1.5574603643651144e-01    7    7    7    7
 8.8645668953449090e-04    8    1    4    1
 1.6773741909493739e-03    8    1    4    2
 1.1303053547695231e-03    8    1    6    4
 1.1777458893210576e-04    8    1    8    1
 3.5749936051957211e-03    8    2    4    1
 2.9867080729855867e-02    8    2    4    2
 2.4069478908247774e-02    8    2    6    4
 5.4158692335736338e-04    8    2    8    1
 1.4241150884559997e-02    8    2    8    2
 8.5333842376937308e-03    8    3    4    3
 4.9305450760940995e-03    8    3    7    4
 4.9305450760940995e-03    8    3    8    3
 1.6596849968433725e-01    8    4    1    1
 2.9204763717628424e-02    8    4    2    1
 1.4920805933632525e-01    8    4    2    2
 1.3903331943597563e-01    8    4    3    3
 1.5610008791136309e-01    8    4    4    4
 1.3903331943597563e-01    8    4    5    5
 2.3233118050700965e-02    8    4    6    1
 1.1103167329865864e-01    8    4    6    2
 1.1998110377482506e-01    8    4    6    6
 7.2896932214423074e-02    8    4    7    3
 9.4227155285478828e-02    8    4    7    7
 8.2758022366611270e-02    8    4    8    4
 8.5333842376937308e-03    8    5    5    4
 4.9305450760940995e-03    8    5    8    5
 3.3928204679973062e-03    8    6    4    1
 3.5094575503888600e-02    8    6    4    2
 3.1250997975173674e-02    8    6    6    4
 5.1666599293351126e-04    8    6    8    1
 1.8983864889974583e-02    8    6    8    2
 3.1784905395206391e-02    8    6    8    6
 7.4149627732599047e-03    8    7    4    3
 5.4970494858274377e-03    8    7    7    4
 5.4970494858274377e-03    8    7    8    3
 9.5354716185619224e-03    8    7    8    7
 1.7978084917903853e-01    8    8    1    1
 3.1831381380879348e-02    8    8    2    1
 1.7541201441833296e-01    8    8    2    2
 1.6861135073923728e-01    8    8    3    3
 1.8344127628575710e-01    8    8    4    4
 1.6861135073923728e-01    8    8    5    5
 2.5275161908520506e-02    8    8    6    1
 1.3478232673020879e-01    8    8    6    2
 1.5892452697603199e-01    8    8    6    6
 9.4227155285478828e-02    8    8    7    3
 1.3667509319938756e-01    8    8    7    7
 1.0522125425713370e-01    8    8    8    4
 1.5574603643651144e-01    8    8    8    8
 8.8645668953449090e-04    9    1    5    1
 1.6773741909493739e-03    9    1    5    2
 1.1303053547695231e-03    9    1    6    5
 1.1777458893210576e-04    9    1    9    1
 3.5749936051957211e-03    9    2    5    1
 2.9867080729855867e-02    9    2    5    2
 2.4069478908247774e-02    9    2    6    5
 5.4158692335736338e-04    9    2    9    1
 1.4241150884559997e-02    9    2    9    2
 8.5333842376937308e-03    9    3    5    3
 4.9305450760940995e-03    9    3    7    5
 4.9305450760940995e-03    9    3    9    3
 8.5333842376937308e-03    9    4    5    4
 4.9305450760940995e-03    9    4    8    5
 4.9305450760940995e-03    9    4    9    4
 1.6596849968433725e-01    9    5    1    1
 2.9204763717628424e-02    9    5    2    1
 1.4920805933632525e-01    9    5    2    2
 1.3903331943597563e-01    9    5    3    3
 1.3903331943597563e-01    9    5    4    4
 1.5610008791136309e-01    9    5    5    5
 2.3233118050700965e-02    9    5    6    1
 1.1103167329865864e-01    9    5    6    2
 1.1998110377482506e-01    9    5    6    6
 7.2896932214423074e-02    9    5    7    3
 9.4227155285478828e-02    9    5    7    7
 7.2896932214423074e-02    9    5    8    4
 9.4227155285478828e-02    9    5    8    8
 8.2758022366611270e-02    9    5    9    5
 3.3928204679973062e-03    9    6    5    1
 3.5094575503888600e-02    9    6    5    2
 3.1250997975173674e-02    9    6    6    5
 5.1666599293351126e-04    9    6    9    1
 1.8983864889974583e-02    9    6    9    2
 3.1784905395206391e-02    9    6    9    6
 7.4149627732599047e-03    9    7    5    3
 5.4970494858274377e-03    9    7    7    5
 5.4970494858274377e-03    9    7    9    3
 9.5354716185619224e-03    9    7    9    7
 7.4149627732599047e-03    9    8    5    4
 5.4970494858274377e-03    9    8    8    5
 5.4970494858274377e-03    9    8    9    4
 9.5354716185619224e-03    9    8    9    8
 1.7978084917903853e-01    9    9    1    1
 3.1831381380879348e-02    9    9    2    1
 1.7541201441833296e-01    9    9    2    2
 1.6861135073923728e-01    9    9    3    3
 1.6861135073923728e-01    9    9    4    4
 1.8344127628575710e-01    9    9    5    5
 2.5275161908520506e-02    9    9    6    1
 1.3478232673020879e-01    9    9    6    2
 1.5892452697603199e-01    9    9    6    6
 9.4227155285478828e-02    9    9    7    3
 1.3667509319938756e-01    9    9    7    7
 9.4227155285478828e-02    9    9    8    4
 1.3667509319938756e-01    9    9    8    8
 1.0522125425713370e-01    9    9    9    5
 1.5574603643651144e-01    9    9    9    9
 2.1439424192026433e-03   10    1    1    1
 3.5399614335027612e-04   10    1    2    1
 1.2388618624342490e-03   10    1    2    2
 1.0893785330731117e-03   10    1    3    3
 1.0893785330731117e-03   10    1    4    4
 1.2339215955228748e-04   10    1    5    1
 3.8704930712936902e-04   10    1    5    2
 1.3077307276504594e-03   10    1    5    5
 2.8701042954165049e-04   10    1    6    1
 8.6557890036909296e-04   10    1    6    2
 2.6167992644010173e-04   10    1    6    5
 8.2374781952795873e-04   10    1    6    6
 4.9977691413044490e-04   10    1    7    3
 5.6482303775352177e-04   10    1    7    7
 4.9977691413044490e-04   10    1    8    4
 5.6482303775352177e-04   10    1    8    8
 1.7592214252129263e-05   10    1    9    1
 1.3408314410858049e-04   10    1    9    2
 5.7048972465918290e-04   10    1    9    5
 1.3089817064858631e-04   10    1    9    6
 6.0341091315062225e-04   10    1    9    9
 1.2234078159557314e-05   10    1   10    1
 5.6109796607406656e-02   10    2    1    1
 9.9255965139363224e-03   10    2    2    1
 4.9551719649202498e-02   10    2    2    2
 4.2536761564689093e-02   10    2    3    3
 4.2536761564689093e-02   10    2    4    4
 2.3214069070782700e-03   10    2    5    1
 1.9476134616836747e-02   10    2    5    2
 5.6419875413042456e-02   10    2    5    5
 7.8835674900074905e-03   10    2    6    1
 3.5896493024408782e-02   10    2    6    2
 1.4692945755926726e-02   10    2    6    5
 3.6448925310832755e-02   10    2    6    6
 2.1312923368896158e-02   10    2    7    3
 2.6069094609707362e-02   10    2    7    7
 2.1312923368896158e-02   10    2    8    4
 2.6069094609707362e-02   10    2    8    8
 3.5554553095380054e-04   10    2    9    1
 8.5728622351097516e-03   10    2    9    2
 2.7890631335356429e-02   10    2    9    5
 9.8581732190568747e-03   10    2    9    6
 3.1184364614039180e-02   10    2    9    9
 3.5390610429197195e-04   10    2   10    1
 2.4336088601874535e-02   10    2   10    2
 1.9184980529094820e-04   10    3    3    1
 1.4689558914396032e-03   10    3    3    2
 1.0202571635047866e-03   10    3    5    3
 1.0975915770300086e-03   10    3    6    3
 2.9217833506635119e-05   10    3    7    1
 6.3512466581334167e-04   10    3    7    2
 4.7230804025898490e-04   10    3    7    5
 7.2268467544749852e-04   10    3    7    6
 4.7230804025898490e-04   10    3    9    3
 3.6195512540882781e-04   10    3    9    7
 4.0081091744599659e-04   10    3   10    3
 1.9184980529094820e-04   10    4    4    1
 1.4689558914396032e-03   10    4    4    2
 1.0202571635047866e-03   10    4    5    4
 1.0975915770300086e-03   10    4    6    4
 2.9217833506635119e-05   10    4    8    1
 6.3512466581334167e-04   10    4    8    2
 4.7230804025898490e-04   10    4    8    5
 7.2268467544749852e-04   10    4    8    6
 4.7230804025898490e-04   10    4    9    4
 3.6195512540882781e-04   10    4    9    8
 4.0081091744599659e-04   10    4   10    4
 8.6027477500765531e-02   10    5    1    1
 1.5217976419232974e-02   10    5    2    1
 7.6479204745115159e-02   10    5    2    2
 6.5678319830723642e-02   10    5    3    3
 6.5678319830723642e-02   10    5    4    4
 3.5160178552875094e-03   10    5    5    1
 3.0132775877737921e-02   10    5    5    2
 8.7374517476804289e-02   10    5    5    5
 1.2087116380144088e-02   10    5    6    1
 5.5531232527507787e-02   10    5    6    2
 2.2895617404082483e-02   10    5    6    5
 5.6614717847662241e-02   10    5    6    6
 3.3024155646494094e-02   10    5    7    3
 4.0566527466684960e-02   10    5    7    7
 3.3024155646494094e-02   10    5    8    4
 4.0566527466684960e-02   10    5    8    8
 5.3855121140340776e-04   10    5    9    1
 1.3401359126497592e-02   10    5    9    2
 4.3466783066513227e-02   10    5    9    5
 1.5577686165842240e-02   10    5    9    6
 4.8837446539345450e-02   10    5    9    9
 5.3974034714714407e-04   10    5   10    1
 3.8052998209263209e-02   10    5   10    2
 5.9615269077496945e-02   10    5   10    5
 3.7349690126171883e-02   10    6    1    1
 6.6077606112938400e-03   10    6    2    1
 3.3462312758738580e-02   10    6    2    2
 2.8806545757344076e-02   10    6    3    3
 2.8806545757344076e-02   10    6    4    4
 1.4922546998216407e-03   10    6    5    1
 1.3132239960400111e-02   10    6    5    2
 3.8248426233490000e-02   10    6    5    5
 5.2481109152351883e-03   10    6    6    1
 2.4356531606994896e-02   10    6    6    2
 1.0056343583018485e-02   10    6    6    5
 2.4941928253815009e-02   10    6    6    6
 1.4536773619074597e-02   10    6    7    3
 1.7927848439262782e-02   10    6    7    7
 1.4536773619074597e-02   10    6    8    4
 1.7927848439262782e-02   10    6    8    8
 2.2869888101869821e-04   10    6    9    1
 5.9066044008527540e-03   10    6    9    2
 1.9163437669811208e-02   10    6    9    5
 6.9488976684483816e-03   10    6    9    6
 2.1670385309033213e-02   10    6    9    9
 2.3035891081567340e-04   10    6   10    1
 1.6517555185858734e-02   10    6   10    2
 2.5916157708072408e-02   10    6   10    5
 1.1289149315035277e-02   10    6   10    6
 6.6492825125297176e-05   10    7    3    1
 5.7750050863194103e-04   10    7    3    2
 4.0979345809317460e-04   10    7    5    3
 4.4258201397820809e-04   10    7    6    3
 1.0183427455803471e-05   10    7    7    1
 2.5975907951861113e-04   10    7    7    2
 2.0122485143824113e-04   10    7    7    5
 3.0651095176903031e-04   10    7    7    6
 2.0122485143824113e-04   10    7    9    3
 1.6393705481704916e-04   10    7    9    7
 1.6640825993594109e-04   10    7   10    3
 7.1351488313950719e-05   10    7   10    7
 6.6492825125297176e-05   10    8    4    1
 5.7750050863194103e-04   10    8    4    2
 4.0979345809317460e-04   10    8    5    4
 4.4258201397820809e-04   10    8    6    4
 1.0183427455803471e-05   10    8    8    1
 2.5975907951861113e-04   10    8    8    2
 2.0122485143824113e-04   10    8    8    5
 3.0651095176903031e-04   10    8    8    6
 2.0122485143824113e-04   10    8    9    4
 1.6393705481704916e-04   10    8    9    8
 1.6640825993594109e-04   10    8   10    4
 7.1351488313950719e-05   10    8   10    8
 3.5338036680364789e-02   10    9    1    1
 6.2576929892000210e-03   10    9    2    1
 3.2304228811272914e-02   10    9    2    2
 2.7849622768847532e-02   10    9    3    3
 2.7849622768847532e-02   10    9    4    4
 1.3538542235034729e-03   10    9    5    1
 1.2728630836600913e-02   10    9    5    2
 3.7143741329345649e-02   10    9    5    5
 4.9686278012764911e-03   10    9    6    1
 2.3629431466194277e-02   10    9    6    2
 9.8922849619296899e-03   10    9    6    5
 2.4405343790678383e-02   10    9    6    6
 1.4163884922150347e-02   10    9    7    3
 1.7620383177047051e-02   10    9    7    7
 1.4163884922150347e-02   10    9    8    4
 1.7620383177047051e-02   10    9    8    8
 2.0798200846203495e-04   10    9    9    1
 5.8518660133761047e-03   10    9    9    2
 1.8865165563479249e-02   10    9    9    5
 7.0292037763906986e-03   10    9    9    6
 2.1551045819206104e-02   10    9    9    9
 2.1415786474190783e-04   10    9   10    1
 1.6283018960312930e-02   10    9   10    2
 2.5636940066897873e-02   10    9   10    5
 1.1201607612300234e-02   10    9   10    6
 1.1186424167286810e-02   10    9   10    9
 3.3373884365403006e-01   10   10    1    1
 5.9135026187154105e-02   10   10    2    1
 3.0681512568144126e-01   10   10    2    2
 2.6041029269546956e-01   10   10    3    3
 2.6041029269546956e-01   10   10    4    4
 1.3182515692857597e-02   10   10    5    1
 1.2636160830218732e-01   10   10    5    2
 3.5793582969522053e-01   10   10    5    5
 4.6944191309630970e-02   10   10    6    1
 2.2346986270237804e-01   10   10    6    2
 9.6628059573772157e-02   10   10    6    5
 2.2864809819388079e-01   10   10    6    6
 1.3186269528293107e-01   10   10    7    3
 1.6319401030942324e-01   10   10    7    7
 1.3186269528293107e-01   10   10    8    4
 1.6319401030942324e-01   10   10    8    8
 2.0295857759417496e-03   10   10    9    1
 5.7053361624592347e-02   10   10    9    2
 1.7944072892761320e-01   10   10    9    5
 6.6294330861566109e-02   10   10    9    6
 2.0053205941464969e-01   10   10    9    9
 2.1439424192026433e-03   10   10   10    1
 1.8778439773997851e-01   10   10   10    2
 2.9585241669349938e-01   10   10   10    5
 1.2819623835063154e-01   10   10   10    6
 1.2788042234867650e-01   10   10   10    9
 1.6758499113063932e+00   10   10   10   10
 1.8778439773997851e-01   11    1    1    1
 2.4463211630925460e-02   11    1    2    1
 6.3434213887230848e-02   11    1    2    2
 5.9941092449994682e-02   11    1    3    3
 5.9941092449994682e-02   11    1    4    4
 1.5609661749203746e-03   11    1    5    1
 2.8139325490497040e-03   11    1    5    2
 6.0056461973451061e-02   11    1    5    5
 2.1148542136887279e-02   11    1    6    1
 4.4281087773291788e-02   11    1    6    2
 1.8964496123737074e-03   11    1    6    5
 4.1737156884194403e-02   11    1    6    6
 2.6089172856449419e-02   11    1    7    3
 2.8380063158859242e-02   11    1    7    7
 2.6089172856449419e-02   11    1    8    4
 2.8380063158859242e-02   11    1    8    8
 2.0610764960025556e-04   11    1    9    1
 9.0172146731276170e-04   11    1    9    2
 2.6121918917154568e-02   11    1    9    5
 8.5828764282401462e-04   11    1    9    6
 2.8396207634784749e-02   11    1    9    9
 3.5390610429197189e-04   11    1   10    1
 9.4512573722008546e-03   11    1   10    2
 1.4479403413042892e-02   11    1   10    5
 6.2781461908476052e-03   11    1   10    6
 5.9287108730725208e-03   11    1   10    9
 5.6109796607406656e-02   11    1   10   10
 2.4336088601874542e-02   11    1   11    1
 2.5764087073504272e-01   11    2    1    1
 4.4503560392787161e-02   11    2    2    1
 2.0255768991843909e-01   11    2    2    2
 1.9145489218844039e-01   11    2    3    3
 1.9145489218844039e-01   11    2    4    4
 4.3352201937556182e-03   11    2    5    1
 3.2431410474800061e-02   11    2    5    2
 1.9674202561922194e-01   11    2    5    5
 3.5593901207182706e-02   11    2    6    1
 1.4664901401789662e-01   11    2    6    2
 2.5428579624567745e-02   11    2    6    5
 1.4951885859998845e-01   11    2    6    6
 9.4626915602443920e-02   11    2    7    3
 1.1319396762667308e-01   11    2    7    7
 9.4626915602443920e-02   11    2    8    4
 1.1319396762667308e-01   11    2    8    8
 6.5250775971764739e-04   11    2    9    1
 1.4869781990246900e-02   11    2    9    2
 9.7810974100845965e-02   11    2    9    5
 1.8801589327583183e-02   11    2    9    6
 1.1673816569415604e-01   11    2    9    9
 9.3800600749236764e-04   11    2   10    1
 4.1113845448247269e-02   11    2   10    2
 6.3689163696758824e-02   11    2   10    5
 2.7951459620214017e-02   11    2   10    6
 2.7193571820007589e-02   11    2   10    9
 2.5764087073504277e-01   11    2   10   10
 4.1113845448247276e-02   11    2   11    1
 1.4480528797108705e-01   11    2   11    2
 6.7572931431104256e-03   11    3    3    1
 4.0215527943950211e-02   11    3    3    2
 9.0717781252002798e-03   11    3    5    3
 3.0640482376711249e-02   11    3    6    3
 9.9460184839310220e-04   11    3    7    1
 1.7560009015039089e-02   11    3    7    2
 4.7609155797693542e-03   11    3    7    5
 2.1256094574323026e-02   11    3    7    6
 4.7609155797693542e-03   11    3    9    3
 4.5849940507924391e-03   11    3    9    7
 1.4728777555850009e-03   11    3   10    3
 6.0038754096193689e-04   11    3   10    7
 2.8700648775257499e-02   11    3   11    3
 6.7572931431104256e-03   11    4    4    1
 4.0215527943950211e-02   11    4    4    2
 9.0717781252002798e-03   11    4    5    4
 3.0640482376711249e-02   11    4    6    4
 9.9460184839310220e-04   11    4    8    1
 1.7560009015039089e-02   11    4    8    2
 4.7609155797693542e-03   11    4    8    5
 2.1256094574323026e-02   11    4    8    6
 4.7609155797693542e-03   11    4    9    4
 4.5849940507924391e-03   11    4    9    8
 1.4728777555850009e-03   11    4   10    4
 6.0038754096193689e-04   11    4   10    8
 2.8700648775257499e-02   11    4   11    4
 1.7562656183702866e-01   11    5    1    1
 3.0757902478739663e-02   11    5    2    1
 1.5136878612230809e-01   11    5    2    2
 1.4018801834642747e-01   11    5    3    3
 1.4018801834642747e-01   11    5    4    4
 8.0531231990882430e-03   11    5    5    1
 5.3828101560201902e-02   11    5    5    2
 1.5737315353419506e-01   11    5    5    5
 2.4503768298920960e-02   11    5    6    1
 1.1150960493505863e-01   11    5    6    2
 4.2413212242415010e-02   11    5    6    5
 1.1775908677455774e-01   11    5    6    6
 7.1916465851002809e-02   11    5    7    3
 9.0249650418414040e-02   11    5    7    7
 7.1916465851002809e-02   11    5    8    4
 9.0249650418414040e-02   11    5    8    8
 1.1923886352601539e-03   11    5    9    1
 2.4694453061515027e-02   11    5    9    2
 8.1546551245352192e-02   11    5    9    5
 3.1819525700225920e-02   11    5    9    6
 1.0045166875232331e-01   11    5    9    9
 8.6876761277710954e-04   11    5   10    1
 4.2865992004806709e-02   11    5   10    2
 6.6737016765623880e-02   11    5   10    5
 2.9381798537050467e-02   11    5   10    6
 2.8863944040871115e-02   11    5   10    9
 2.7447064539087684e-01   11    5   10   10
 2.9562512529126752e-02   11    5   11    1
 1.2495395275246798e-01   11    5   11    2
 1.2518303443822398e-01   11    5   11    5
 2.0748580113619319e-01   11    6    1    1
 3.5754582115700748e-02   11    6    2    1
 1.7078530294921210e-01   11    6    2    2
 1.6265418987558963e-01   11    6    3    3
 1.6265418987558963e-01   11    6    4    4
 3.3670096760131424e-03   11    6    5    1
 2.9842699652036619e-02   11    6    5    2
 1.6921398128989565e-01   11    6    5    5
 2.8607654736522697e-02   11    6    6    1
 1.2595857886469419e-01   11    6    6    2
 2.5143693394222347e-02   11    6    6    5
 1.3393816722700122e-01   11    6    6    6
 8.3486251416333604e-02   11    6    7    3
 1.0532326975614871e-01   11    6    7    7
 8.3486251416333604e-02   11    6    8    4
 1.0532326975614871e-01   11    6    8    8
 5.0838616800456121e-04   11    6    9    1
 1.5050463484162410e-02   11    6    9    2
 8.8065584710464592e-02   11    6    9    5
 2.2036533444589806e-02   11    6    9    6
 1.1181001763786332e-01   11    6    9    9
 7.5829072977830236e-04   11    6   10    1
 3.6193602941025020e-02   11    6   10    2
 5.6387380688218629e-02   11    6   10    5
 2.4888275235085806e-02   11    6   10    6
 2.4495170746534206e-02   11    6   10    9
 2.2978037596697401e-01   11    6   10   10
 3.3015223607418528e-02   11    6   11    1
 1.2560411454518114e-01   11    6   11    2
 1.1331836648450438e-01   11    6   11    5
 1.1413758216050172e-01   11    6   11    6
 2.2127216802907321e-03   11    7    3    1
 1.9293042666561372e-02   11    7    3    2
 5.3761974961493006e-03   11    7    5    3
 1.6062153437089943e-02   11    7    6    3
 3.3431708979168493e-04   11    7    7    1
 9.5857065036165211e-03   11    7    7    2
 3.4171325657859713e-03   11    7    7    5
 1.3715329134277081e-02   11    7    7    6
 3.4171325657859713e-03   11    7    9    3
 4.3562332504635875e-03   11    7    9    7
 7.8242238729772206e-04   11    7   10    3
 3.3789384483607179e-04   11    7   10    7
 1.5017183042312240e-02   11    7   11    3
 9.5844999868358646e-03   11    7   11    7
 2.2127216802907321e-03   11    8    4    1
 1.9293042666561372e-02   11    8    4    2
 5.3761974961493006e-03   11    8    5    4
 1.6062153437089943e-02   11    8    6    4
 3.3431708979168493e-04   11    8    8    1
 9.5857065036165211e-03   11    8    8    2
 3.4171325657859713e-03   11    8    8    5
 1.3715329134277081e-02   11    8    8    6
 3.4171325657859713e-03   11    8    9    4
 4.3562332504635875e-03   11    8    9    8
 7.8242238729772206e-04   11    8   10    4
 3.3789384483607179e-04   11    8   10    8
 1.5017183042312240e-02   11    8   11    4
 9.5844999868358646e-03   11    8   11    8
 1.1460207990969906e-01   11    9    1    1
 2.0259984815639252e-02   11    9    2    1
 1.0883507381366979e-01   11    9    2    2
 1.0264429834013250e-01   11    9    3    3
 1.0264429834013250e-01   11    9    4    4
 3.2748004184545211e-03   11    9    5    1
 3.2679755990985049e-02   11    9    5    2
 1.1500633748082556e-01   11    9    5    5
 1.6094638625489661e-02   11    9    6    1
 8.2452476200459660e-02   11    9    6    2
 2.8565203755296111e-02   11    9    6    5
 9.2956846583165678e-02   11    9    6    6
 5.5529199877468412e-02   11    9    7    3
 7.5276546389039467e-02   11    9    7    7
 5.5529199877468412e-02   11    9    8    4
 7.5276546389039467e-02   11    9    8    8
 4.9768060437237074e-04   11    9    9    1
 1.7287781767553911e-02   11    9    9    2
 6.4062839640844110e-02   11    9    9    5
 2.7149564427604040e-02   11    9    9    6
 8.7540181146367010e-02   11    9    9    9
 5.1557671308163943e-04   11    9   10    1
 2.9570439548803968e-02   11    9   10    2
 4.6448510116417402e-02   11    9   10    5
 2.0645132358294706e-02   11    9   10    6
 2.0647537830173604e-02   11    9   10    9
 1.9263413852496519e-01   11    9   10   10
 1.8914146296393510e-02   11    9   11    1
 8.9742406851122614e-02   11    9   11    2
 9.1818423626316731e-02   11    9   11    5
 8.7586720466860113e-02   11    9   11    6
 7.6579617532005359e-02   11    9   11    9
 5.9135026187154063e-02   11   10    1    1
 1.0460496791061851e-02   11   10    2    1
 5.3131237936274861e-02   11   10    2    2
 4.6043262521517678e-02   11   10    3    3
 4.6043262521517678e-02   11   10    4    4
 2.3079297908650989e-03   11   10    5    1
 2.0487152366608766e-02   11   10    5    2
 6.0475390942759881e-02   11   10    5    5
 8.3084696753261550e-03   11   10    6    1
 3.8794221180216998e-02   11   10    6    2
 1.5862813492337802e-02   11   10    6    5
 3.9976145081592890e-02   11   10    6    6
 2.3327086936750157e-02   11   10    7    3
 2.8903036870123085e-02   11   10    7    7
 2.3327086936750157e-02   11   10    8    4
 2.8903036870123085e-02   11   10    8    8
 3.5348878793467774e-04   11   10    9    1
 9.3436528193028140e-03   11   10    9    2
 3.0581391944160645e-02   11   10    9    5
 1.1215255198925720e-02   11   10    9    6
 3.4997108823716122e-02   11   10    9    9
 3.5399614335027607e-04   11   10   10    1
 2.4463211630925460e-02   11   10   10    2
 3.8413470694761989e-02   11   10   10    5
 1.6804014515073497e-02   11   10   10    6
 1.6713942498385113e-02   11   10   10    9
 1.8196006172839291e-01   11   10   10   10
 9.9255965139363224e-03   11   10   11    1
 4.4503560392787134e-02   11   10   11    2
 4.6831870289978948e-02   11   10   11    5
 3.9924121330718737e-02   11   10   11    6
 3.3347182621136895e-02   11   10   11    9
 2.5489236595355028e-02   11   10   11   10
 3.0681512568144120e-01   11   11    1    1
 5.3131237936274917e-02   11   11    2    1
 2.5952652144122534e-01   11   11    2    2
 2.4374059421489971e-01   11   11    3    3
 2.4374059421489971e-01   11   11    4    4
 7.2044712302979262e-03   11   11    5    1
 6.3473201391733403e-02   11   11    5    2
 2.6619124316913578e-01   11   11    5    5
 4.2452652236574379e-02   11   11    6    1
 1.9231598407186670e-01   11   11    6    2
 5.3482471905436361e-02   11   11    6    5
 2.0628352925430532e-01   11   11    6    6
 1.2589296061689836e-01   11   11    7    3
 1.6036653060584458e-01   11   11    7    7
 1.2589296061689836e-01   11   11    8    4
 1.6036653060584458e-01   11   11    8    8
 1.0864793067786220e-03   11   11    9    1
 3.2012132124875560e-02   11   11    9    2
 1.4089104344527181e-01   11   11    9    5
 4.6506441369171717e-02   11   11    9    6
 1.8012151413592950e-01   11   11    9    9
 1.2388618624342490e-03   11   11   10    1
 6.3434213887230861e-02   11   11   10    2
 9.9176369344414081e-02   11   11   10    5
 4.3910785010047075e-02   11   11   10    6
 4.3518928217806355e-02   11   11   10    9
 4.0623642626685463e-01   11   11   10   10
 4.9551719649202505e-02   11   11   11    1
 2.0255768991843909e-01   11   11   11    2
 1.9515032551714426e-01   11   11   11    5
 1.8803732532347731e-01   11   11   11    6
 1.5312217552880825e-01   11   11   11    9
 7.0709080272432334e-02   11   11   11   10
 3.2113299729685230e-01   11   11   11   11
 1.5926312953036363e-03   12    1    3    1
 2.9707361066045931e-03   12    1    3    2