 &FCI NORB= 13,NELEC= 10,MS2= 0,
  ORBSYM=1,1,1,1,1,1,1,2,2,3,3,3,3,
  ISYM=1,
 /
  4.7391386851893031E+00   1   1   1   1
  4.2602572630389179E-01   2   1   1   1
  6.2929315118496268E-02   2   1   2   1
  1.0450534722975786E+00   2   2   1   1
  1.2401430139814030E-02   2   2   2   1
  7.6703817297964072E-01   2   2   2   2
  1.5476062223197384E-01   3   1   1   1
  1.7065660108323225E-02   3   1   2   1
  1.8189125969675882E-02   3   1   2   2
  3.1480624630188338E-02   3   1   3   1
  7.7065199744930118E-02   3   2   1   1
  9.1316630937124960E-03   3   2   2   1
 -3.2400752220818882E-02   3   2   2   2
 -2.1552808504848621E-02   3   2   3   1
  1.1212780198105564E-01   3   2   3   2
  9.9798854232702316E-01   3   3   1   1
  1.4747075642589579E-02   3   3   2   1
  6.7080516470161522E-01   3   3   2   2
 -1.2417898328135791E-02   3   3   3   1
  8.1653348930153496E-02   3   3   3   2
  7.5671705726277005E-01   3   3   3   3
  1.4942610765112854E-01   4   1   1   1
  2.3974421073711297E-02   4   1   2   1
  4.9718678826492484E-04   4   1   2   2
 -4.2751164417488498E-04   4   1   3   1
  9.4354514983764331E-03   4   1   3   2
  9.1448455332128892E-03   4   1   3   3
  1.0933398428724499E-02   4   1   4   1
  2.2013512856023848E-01   4   2   1   1
  4.0867452563151723E-03   4   2   2   1
  1.1442099547815865E-01   4   2   2   2
  1.0675994260731450E-02   4   2   3   1
 -1.6291308914050603E-02   4   2   3   2
  7.6322865949816632E-02   4   2   3   3
 -1.0289929339063683E-03   4   2   4   1
  4.1492542045840089E-02   4   2   4   2
 -1.1053856001472427E-01   4   3   1   1
 -5.1168231206209194E-04   4   3   2   1
 -5.6604360425438385E-02   4   3   2   2
 -3.0882568601972543E-03   4   3   3   1
 -6.6639867013998664E-03   4   3   3   2
 -6.2211052606698146E-02   4   3   3   3
  6.7016297207497799E-04   4   3   4   1
 -2.1666089308017840E-02   4   3   4   2
  2.0881809727437833E-02   4   3   4   3
  4.3597245789557776E-01   4   4   1   1
  1.5293910109623397E-03   4   4   2   1
  3.9478244216746600E-01   4   4   2   2
  7.4889670326027565E-03   4   4   3   1
 -3.4404373777143248E-02   4   4   3   2
  3.5240720302574163E-01   4   4   3   3
 -1.3108400290643835E-03   4   4   4   1
  1.9110841502761211E-02   4   4   4   2
  1.3961720838635561E-03   4   4   4   3
  3.3366861185583302E-01   4   4   4   4
  1.0904809746842042E-01   5   1   1   1
  8.7553398663019841E-03   5   1   2   1
  1.8769106834974347E-02   5   1   2   2
  3.6746231967003655E-02   5   1   3   1
 -2.6424567418292438E-02   5   1   3   2
 -1.7112210198572449E-02   5   1   3   3
 -5.5462237163735363E-03   5   1   4   1
  1.1724825524082737E-02   5   1   4   2
 -3.5944373428178598E-03   5   1   4   3
  8.3719512914970061E-03   5   1   4   4
  4.5406072224825372E-02   5   1   5   1
  1.5176570684205852E-02   5   2   1   1
  4.8947167653552543E-03   5   2   2   1
 -9.8425131279385996E-03   5   2   2   2
 -1.4106448672113079E-02   5   2   3   1
  3.0275249264442052E-02   5   2   3   2
  2.6326213452139216E-02   5   2   3   3
  5.7731240738375968E-03   5   2   4   1
 -1.2552032894547470E-02   5   2   4   2
  1.0074571606547129E-02   5   2   4   3
 -9.7441250184841441E-04   5   2   4   4
 -1.7642769859118088E-02   5   2   5   1
  3.0233798447671056E-02   5   2   5   2
  4.6168910991741380E-01   5   3   1   1
  1.5232822310519740E-02   5   3   2   1
  1.6396814505833338E-01   5   3   2   2
 -5.2606310961962064E-03   5   3   3   1
  3.3432120545170967E-02   5   3   3   2
  1.8611019486704189E-01   5   3   3   3
  7.6789223091665443E-03   5   3   4   1
  4.5343495976546910E-02   5   3   4   2
 -2.4839257383485202E-02   5   3   4   3
  3.3313254493234273E-02   5   3   4   4
 -9.1437037845117693E-03   5   3   5   1
  1.7681544688831312E-02   5   3   5   2
  1.4261449372816995E-01   5   3   5   3
 -1.1137795911502889E-01   5   4   1   1
 -1.2170465087271234E-03   5   4   2   1
 -6.0849862325328304E-02   5   4   2   2
 -6.9799397442007237E-03   5   4   3   1
  2.9031433815304007E-02   5   4   3   2
 -3.0801138273489872E-02   5   4   3   3
  1.3409151697633265E-03   5   4   4   1
 -1.7135811843179069E-02   5   4   4   2
  4.9300180434778962E-04   5   4   4   3
 -3.0467451115025461E-02   5   4   4   4
 -7.8840849874858253E-03   5   4   5   1
  1.1939206205210558E-03   5   4   5   2
 -2.7808530899138952E-02   5   4   5   3
  2.5705769961241243E-02   5   4   5   4
  9.4065440450133309E-01   5   5   1   1
  1.8809255993477242E-02   5   5   2   1
  5.7882457924188258E-01   5   5   2   2
 -5.3383705103046495E-03   5   5   3   1
  6.0583750830487372E-02   5   5   3   2
  6.4385755959970081E-01   5   5   3   3
  9.1000181022739268E-03   5   5   4   1
  6.3762201472184032E-02   5   5   4   2
 -5.5611211914896631E-02   5   5   4   3
  3.2754294592520034E-01   5   5   4   4
 -9.6405086393133929E-03   5   5   5   1
  1.1586244989624919E-02   5   5   5   2
  1.3937465612441785E-01   5   5   5   3
 -2.1912421222099340E-02   5   5   5   4
  5.9472022061596042E-01   5   5   5   5
  1.8950764183371799E-01   6   1   1   1
  3.1269918532860277E-02   6   1   2   1
 -7.6303041101957541E-04   6   1   2   2
 -4.3677641033696441E-03   6   1   3   1
  1.4683320670782976E-02   6   1   3   2
  1.3792762122370801E-02   6   1   3   3
  1.5242403064658145E-02   6   1   4   1
 -2.4444427592146649E-03   6   1   4   2
  1.2114211389391213E-03   6   1   4   3
 -2.4102928564893266E-03   6   1   4   4
 -1.2162364535982231E-02   6   1   5   1
  9.2362455711372457E-03   6   1   5   2
  1.0973248706030671E-02   6   1   5   3
  2.4660766858664554E-03   6   1   5   4
  1.3043034371626679E-02   6   1   5   5
  2.1742255906793986E-02   6   1   6   1
  2.1842517973943848E-01   6   2   1   1
  5.9964562885412636E-03   6   2   2   1
  7.0523545155104478E-02   6   2   2   2
  1.1922251923666279E-02   6   2   3   1
  8.9274786585475914E-04   6   2   3   2
  5.0632714991874384E-02   6   2   3   3
 -5.8710197730078503E-04   6   2   4   1
  4.0220000989431445E-02   6   2   4   2
 -2.2713528472408689E-02   6   2   4   3
  6.6073181256919716E-03   6   2   4   4
  1.3078603949560112E-02   6   2   5   1
 -1.0508246608671447E-02   6   2   5   2
  3.9747199046632029E-02   6   2   5   3
 -1.5251916017642319E-02   6   2   5   4
  5.3262803183782105E-02   6   2   5   5
 -2.2314825664081078E-03   6   2   6   1
  7.1679305059161327E-02   6   2   6   2
 -1.2072083626678939E-01   6   3   1   1
 -2.3396571079033154E-03   6   3   2   1
 -2.7793604270436579E-02   6   3   2   2
 -3.0938559687910430E-03   6   3   3   1
 -1.4021092600195188E-02   6   3   3   2
 -4.6272310723792238E-02   6   3   3   3
 -7.4251848129387038E-05   6   3   4   1
 -2.0246862043383107E-02   6   3   4   2
  1.7822722746742896E-02   6   3   4   3
  2.1376620055236530E-03   6   3   4   4
 -3.3699421551284122E-03   6   3   5   1
  4.4554373183514993E-03   6   3   5   2
 -2.9431454403836318E-02   6   3   5   3
  6.8162299361569385E-03   6   3   5   4
 -4.6462022766043401E-02   6   3   5   5
  3.3122299247453479E-04   6   3   6   1
 -4.2635601230362037E-02   6   3   6   2
  3.4612146218050997E-02   6   3   6   3
  1.9446749255855106E-01   6   4   1   1
  3.0093998730582722E-03   6   4   2   1
  1.1715898054747859E-01   6   4   2   2
  7.4422102776694312E-03   6   4   3   1
 -1.3817441986784772E-02   6   4   3   2
  9.1716669578232449E-02   6   4   3   3
 -6.9239625052285730E-04   6   4   4   1
  2.6560226762078809E-02   6   4   4   2
 -1.5118401931979466E-02   6   4   4   3
  3.1392444418277481E-02   6   4   4   4
  8.2024728005666986E-03   6   4   5   1
 -1.0002330085473240E-02   6   4   5   2
  3.7792477197630577E-02   6   4   5   3
 -1.1323334374637322E-02   6   4   5   4
  7.4831887586198298E-02   6   4   5   5
 -1.6485663870835776E-03   6   4   6   1
  1.1633081946863341E-02   6   4   6   2
 -2.3824393935904589E-03   6   4   6   3
  3.7618283695844509E-02   6   4   6   4
 -1.7175759440175137E-01   6   5   1   1
 -4.1366806283955372E-03   6   5   2   1
 -5.8945994039528549E-02   6   5   2   2
 -6.4569040054642726E-03   6   5   3   1
  4.3032096979824328E-03   6   5   3   2
 -5.1976771649913336E-02   6   5   3   3
  3.4594635847200184E-06   6   5   4   1
 -2.3135744905454510E-02   6   5   4   2
  1.4445315449380852E-02   6   5   4   3
 -1.1399119245621137E-02   6   5   4   4
 -6.9203409170613362E-03   6   5   5   1
  7.8624579675142716E-03   6   5   5   2
 -4.1648528222221266E-02   6   5   5   3
  1.2122641618976178E-02   6   5   5   4
 -4.5605977241721676E-02   6   5   5   5
  6.8430324995534704E-04   6   5   6   1
 -2.6236429426658964E-02   6   5   6   2
  1.7184025102992134E-02   6   5   6   3
 -1.7837995473555149E-02   6   5   6   4
  2.2421362943744399E-02   6   5   6   5
  6.9169087384199701E-01   6   6   1   1
  3.1386543293968868E-03   6   6   2   1
  6.1200655104873614E-01   6   6   2   2
  1.5999137662865738E-02   6   6   3   1
 -8.1074528256617429E-02   6   6   3   2
  5.0652415981167054E-01   6   6   3   3
 -2.8638848112119697E-03   6   6   4   1
  5.3217723423740759E-02   6   6   4   2
 -1.3299420961425112E-02   6   6   4   3
  3.8977219342534253E-01   6   6   4   4
  1.7811909132019479E-02   6   6   5   1
 -1.2208738478145020E-02   6   6   5   2
  8.4894410195422224E-02   6   6   5   3
 -5.2741029769832012E-02   6   6   5   4
  4.4102971165537969E-01   6   6   5   5
 -5.0066879961104122E-03   6   6   6   1
 -2.7168416524728178E-02   6   6   6   2
  3.7081994762898002E-02   6   6   6   3
  9.8934954755000387E-02   6   6   6   4
 -2.3506033470297883E-02   6   6   6   5
  6.6006273535686211E-01   6   6   6   6
  3.5568378252606336E-01   7   1   1   1
  5.2609336354823330E-02   7   1   2   1
  1.0091533525666989E-02   7   1   2   2
  1.4703963584130434E-02   7   1   3   1
  6.2728675486763983E-03   7   1   3   2
  1.0686062969434591E-02   7   1   3   3
  1.9905047158641623E-02   7   1   4   1
  3.4287906195338744E-03   7   1   4   2
 -3.9919221059194106E-04   7   1   4   3
  1.4073658417461392E-03   7   1   4   4
  7.8555808977106394E-03   7   1   5   1
  3.4025077722821886E-03   7   1   5   2
  1.1354646426113437E-02   7   1   5   3
 -1.1012399730223246E-03   7   1   5   4
  1.4340598324188178E-02   7   1   5   5
  2.5984222439520727E-02   7   1   6   1
  4.9029078425397322E-03   7   1   6   2
 -1.7604200845729345E-03   7   1   6   3
  2.5222488424355887E-03   7   1   6   4
 -3.3213283503573687E-03   7   1   6   5
  3.0164541883378501E-03   7   1   6   6
  4.4321805398070242E-02   7   1   7   1
  3.3837179447357002E-01   7   2   1   1
  1.2195364331441421E-02   7   2   2   1
  1.1369940543666895E-01   7   2   2   2
  8.6661077977072294E-03   7   2   3   1
  7.7859342041665799E-03   7   2   3   2
  1.0033377724376913E-01   7   2   3   3
  2.9857508060541285E-03   7   2   4   1
  3.9161008029388988E-02   7   2   4   2
 -2.0180187299631343E-02   7   2   4   3
  2.2248182639419713E-02   7   2   4   4
  8.1164348518645464E-03   7   2   5   1
 -8.0283145804459968E-03   7   2   5   2
  7.7159873157541678E-02   7   2   5   3
 -1.6760854204569485E-02   7   2   5   4
  8.3530705718557557E-02   7   2   5   5
  3.1432987551090336E-03   7   2   6   1
  3.2671300602310036E-02   7   2   6   2
 -1.8905181128682121E-02   7   2   6   3
  3.2010746238759144E-02   7   2   6   4
 -3.0007083541355395E-02   7   2   6   5
  6.2411674281211742E-02   7   2   6   6
  9.4139290771686930E-03   7   2   7   1
  7.0145262906658054E-02   7   2   7   2
  8.7049321927887224E-02   7   3   1   1
  5.9187324649029810E-03   7   3   2   1
  2.8085479948805659E-02   7   3   2   2
 -9.9196746082029913E-03   7   3   3   1
  1.4533181150039097E-02   7   3   3   2
  4.6686839437134663E-02   7   3   3   3
  5.1131613063080906E-03   7   3   4   1
  1.1280612299715692E-03   7   3   4   2
  3.3106583234738382E-03   7   3   4   3
  7.9014010397546637E-03   7   3   4   4
 -1.3040961414138784E-02   7   3   5   1
  2.5742828407353910E-02   7   3   5   2
  3.2939415067167542E-02   7   3   5   3
 -7.5066498270542452E-03   7   3   5   4
  3.1680568243344587E-02   7   3   5   5
  7.9845931468688659E-03   7   3   6   1
  8.2172234721701078E-04   7   3   6   2
 -2.3230380962453567E-03   7   3   6   3
 -5.5433915260471190E-04   7   3   6   4
 -4.7442186503211803E-04   7   3   6   5
  1.1258894697191593E-02   7   3   6   6
  4.2806189064640973E-03   7   3   7   1
  4.3677749431425099E-03   7   3   7   2
  2.9306135897237157E-02   7   3   7   3
  1.8098791143140189E-01   7   4   1   1
  3.9397799524979581E-03   7   4   2   1
  9.4053587802092442E-02   7   4   2   2
  6.7662389450409473E-03   7   4   3   1
 -1.5676444554548813E-03   7   4   3   2
  7.9219145764664795E-02   7   4   3   3
 -1.0518777556840081E-04   7   4   4   1
  2.5722597531359498E-02   7   4   4   2
 -1.7047878492790637E-02   7   4   4   3
  1.6211812041771252E-02   7   4   4   4
  7.3475000650659846E-03   7   4   5   1
 -7.1134119647103117E-03   7   4   5   2
  2.8573604343629284E-02   7   4   5   3
 -1.0130750008367544E-02   7   4   5   4
  7.2299079779336847E-02   7   4   5   5
 -7.9503967840142790E-04   7   4   6   1
  2.5216233936645564E-02   7   4   6   2
 -1.4025660925367906E-02   7   4   6   3
  2.0637817098084814E-02   7   4   6   4
 -1.4338433423985478E-02   7   4   6   5
  4.9566506529675577E-02   7   4   6   6
  3.1896282253032933E-03   7   4   7   1
  2.4045869514181036E-02   7   4   7   2
  1.5999438812820605E-03   7   4   7   3
  2.7246734034821356E-02   7   4   7   4
  4.2718049641137429E-02   7   5   1   1
  5.6744650268730247E-03   7   5   2   1
 -1.8830093724861316E-02   7   5   2   2
 -1.6874054106081345E-02   7   5   3   1
  7.1726960937782414E-02   7   5   3   2
  5.6772464190803451E-02   7   5   3   3
  6.7774498837415240E-03   7   5   4   1
 -1.0884736872752591E-02   7   5   4   2
 -7.4654058800282530E-03   7   5   4   3
 -2.3973275743206582E-02   7   5   4   4
 -2.0776232146649570E-02   7   5   5   1
  1.5595783497037649E-02   7   5   5   2
  2.1378041177417449E-02   7   5   5   3
  2.4578037239505163E-02   7   5   5   4
  4.4889254982238079E-02   7   5   5   5
  1.0804317008160027E-02   7   5   6   1
 -7.9488040444728996E-03   7   5   6   2
 -4.3444763260780256E-03   7   5   6   3
 -4.9824323512152767E-03   7   5   6   4
  2.2325111772532324E-03   7   5   6   5
 -4.3431924617223228E-02   7   5   6   6
  3.7972977579851324E-03   7   5   7   1
  7.7885435441533354E-03   7   5   7   2
  5.2374864341533239E-03   7   5   7   3
 -2.6703084466546245E-03   7   5   7   4
  5.6276325381018705E-02   7   5   7   5
  1.5313118949601498E-01   7   6   1   1
  5.2981011352641518E-03   7   6   2   1
  3.9292104455564351E-02   7   6   2   2
  8.9359982467106160E-03   7   6   3   1
  4.1416254555233403E-04   7   6   3   2
  2.9479720546193536E-02   7   6   3   3
 -5.2165115681158947E-05   7   6   4   1
  2.2212662517655465E-02   7   6   4   2
 -1.3336372969929905E-02   7   6   4   3
  3.9130258094379859E-03   7   6   4   4
  9.7674426690602112E-03   7   6   5   1
 -1.1109720632584729E-02   7   6   5   2
  2.7525734070885693E-02   7   6   5   3
 -7.4997370977200667E-03   7   6   5   4
  2.9509184087342738E-02   7   6   5   5
 -1.0888802933449113E-03   7   6   6   1
  3.0340709827261409E-02   7   6   6   2
 -1.9699930992962571E-02   7   6   6   3
  1.0733453993730806E-02   7   6   6   4
 -1.8757289287536307E-02   7   6   6   5
 -6.1576537627926926E-03   7   6   6   6
  4.2521444467872350E-03   7   6   7   1
  3.1454680602761888E-02   7   6   7   2
 -3.8437404461351384E-03   7   6   7   3
  1.2659022733178803E-02   7   6   7   4
  2.5634861887697223E-04   7   6   7   5
  2.5921199900490546E-02   7   6   7   6
  7.9302283643878280E-01   7   7   1   1
  1.0187552126847806E-02   7   7   2   1
  5.9175541523126030E-01   7   7   2   2
  9.5473970069835570E-03   7   7   3   1
 -1.2708119307228566E-02   7   7   3   2
  5.4198278480296236E-01   7   7   3   3
  1.7615450232991020E-03   7   7   4   1
  6.6559657516875426E-02   7   7   4   2
 -3.2070934827959793E-02   7   7   4   3
  3.5594487072157827E-01   7   7   4   4
  9.2378132298562184E-03   7   7   5   1
  4.7194775313688236E-03   7   7   5   2
  1.0098733963115686E-01   7   7   5   3
 -4.2259061485548449E-02   7   7   5   4
  4.8648068481748880E-01   7   7   5   5
  1.6354248347950490E-03   7   7   6   1
  5.0631654236141799E-02   7   7   6   2
 -2.0720364816816432E-02   7   7   6   3
  7.1727738028117938E-02   7   7   6   4
 -3.3372181353566739E-02   7   7   6   5
  4.8838633316795127E-01   7   7   6   6
  8.1906006360743799E-03   7   7   7   1
  5.4537743553078888E-02   7   7   7   2
  2.6164683781859585E-02   7   7   7   3
  6.5482887826124936E-02   7   7   7   4
 -1.5094964563078100E-02   7   7   7   5
  1.3608698143746293E-02   7   7   7   6
  5.1118848329884914E-01   7   7   7   7
  1.0405854382532038E+00   8   8   1   1
  1.1394331217422865E-02   8   8   2   1
  7.1198254036254038E-01   8   8   2   2
  3.7623765374067090E-03   8   8   3   1
  3.9095851460116002E-02   8   8   3   2
  6.7344279900912440E-01   8   8   3   3
  3.3623075192402707E-03   8   8   4   1
  1.0185640377771255E-01   8   8   4   2
 -5.4304554698098299E-02   8   8   4   3
  3.6269721567707136E-01   8   8   4   4
  2.2734364631890706E-03   8   8   5   1
  1.1714935500241525E-02   8   8   5   2
  1.6836579642583510E-01   8   8   5   3
 -4.0175241803373313E-02   8   8   5   4
  5.8726140542565219E-01   8   8   5   5
  3.9884313590725778E-03   8   8   6   1
  9.0491188376123355E-02   8   8   6   2
 -3.8035701757348578E-02   8   8   6   3
  9.9407450722829166E-02   8   8   6   4
 -5.2341843810412118E-02   8   8   6   5
  5.2311323674476262E-01   8   8   6   6
  8.8317331632210283E-03   8   8   7   1
  1.0105329632049365E-01   8   8   7   2
  3.3858396226542117E-02   8   8   7   3
  9.0513827349439302E-02   8   8   7   4
  2.0780274390250555E-02   8   8   7   5
  3.5460927009725002E-02   8   8   7   6
  5.7951107541632618E-01   8   8   7   7
  7.6323206326282833E-01   8   8   8   8
  5.0858602073493808E-01   9   8   1   1
  1.3903873441949923E-02   9   8   2   1
  1.8948087699398389E-01   9   8   2   2
  4.7128293784081095E-03   9   8   3   1
  2.0629846682012454E-02   9   8   3   2
  1.7479998167938934E-01   9   8   3   3
  4.3961345865069223E-03   9   8   4   1
  5.7945633472700542E-02   9   8   4   2
 -2.6554996494505437E-02   9   8   4   3
  3.9246176501456745E-02   9   8   4   4
  2.9781334183079933E-03   9   8   5   1
  5.5896105512259105E-03   9   8   5   2
  1.1446880820830867E-01   9   8   5   3
 -2.5334834651003117E-02   9   8   5   4
  1.4250350419990568E-01   9   8   5   5
  5.1942201341650118E-03   9   8   6   1
  5.5198156979895968E-02   9   8   6   2
 -2.8544647451841969E-02   9   8   6   3
  4.6303298448582789E-02   9   8   6   4
 -3.8892200953759344E-02   9   8   6   5
  9.5041343001071643E-02   9   8   6   6
  1.0729795382959546E-02   9   8   7   1
  8.9286015287441761E-02   9   8   7   2
  2.3309961944469014E-02   9   8   7   3
  3.6371411301649878E-02   9   8   7   4
  1.2180665048135237E-02   9   8   7   5
  4.2248142731969085E-02   9   8   7   6
  1.0626061094057959E-01   9   8   7   7
  2.0674824870002867E-01   9   8   8   8
  1.5911379988356705E-01   9   8   9   8
  9.8032412238911937E-01   9   9   1   1
  1.7247039146526675E-02   9   9   2   1
  6.1112091981700301E-01   9   9   2   2
  5.8716781068789154E-03   9   9   3   1
  2.9309609470433790E-02   9   9   3   2
  5.8604180016320762E-01   9   9   3   3
  5.4033697497402888E-03   9   9   4   1
  7.7985782139676552E-02   9   9   4   2
 -4.3569496839478229E-02   9   9   4   3
  3.4198299080511391E-01   9   9   4   4
  3.7627497281546886E-03   9   9   5   1
  7.8943280511461766E-03   9   9   5   2
  1.3769328034450054E-01   9   9   5   3
 -3.4414080929524082E-02   9   9   5   4
  5.3251730952041620E-01   9   9   5   5
  6.6100026800513245E-03   9   9   6   1
  7.2855952005991320E-02   9   9   6   2
 -3.2971924518966390E-02   9   9   6   3
  7.8713220912166010E-02   9   9   6   4
 -4.5099614211374907E-02   9   9   6   5
  4.6908661764518850E-01   9   9   6   6
  1.3635978268104171E-02   9   9   7   1
  8.4603522313658974E-02   9   9   7   2
  2.7690800794784403E-02   9   9   7   3
  7.8590223241642526E-02   9   9   7   4
  1.6594215326636748E-02   9   9   7   5
  2.8814779572822323E-02   9   9   7   6
  5.2057101195722366E-01   9   9   7   7
  6.5328507347231546E-01   9   9   8   8
  1.6393399213553184E-01   9   9   9   8
  5.9631144500843236E-01   9   9   9   9
  8.9271910484951922E-01  10  10   1   1
  6.5254047275548057E-03  10  10   2   1
  6.9024002290947695E-01  10  10   2   2
  6.8170561997578042E-03  10  10   3   1
 -1.2425022324768491E-02  10  10   3   2
  6.1404463106912699E-01  10  10   3   3
  8.4295537090511852E-04  10  10   4   1
  7.8665152279288275E-02  10  10   4   2
 -3.6622770339751795E-02  10  10   4   3
  3.8188592604894833E-01  10  10   4   4
  6.5221007123053461E-03  10  10   5   1
 -1.0119325123452982E-03  10  10   5   2
  1.3659301164452697E-01  10  10   5   3
 -4.2876256460277443E-02  10  10   5   4
  5.3044861215503836E-01  10  10   5   5
  1.0848769884391624E-03  10  10   6   1
  1.8401581902851738E-02  10  10   6   2
  1.5519230784362820E-03  10  10   6   3
  1.0165616612110975E-01  10  10   6   4
 -3.9024644011548294E-02  10  10   6   5
  5.9831207190846680E-01  10  10   6   6
  4.9672302782816785E-03  10  10   7   1
  9.6464288358509787E-02  10  10   7   2
  2.5430850995653884E-02  10  10   7   3
  7.3923355565462201E-02  10  10   7   4
 -1.1572421575255162E-03  10  10   7   5
  2.1895446019008571E-02  10  10   7   6
  5.3911040796979026E-01  10  10   7   7
  6.2709693703589564E-01  10  10   8   8
  1.4819582145656851E-01  10  10   9   8
  5.4923236199651571E-01  10  10   9   9
  6.7708449066438015E-01  10  10  10  10
  2.6500134151281685E-01  11  10   1   1
  4.9925948284147651E-03  11  10   2   1
  1.2374231255820362E-01  11  10   2   2
  5.2571992120184572E-05  11  10   3   1
  3.0984413206287465E-02  11  10   3   2
  1.2623146186936182E-01  11  10   3   3
  2.0087110149021870E-03  11  10   4   1
  3.6743444429801167E-02  11  10   4   2
 -2.5913122149238580E-02  11  10   4   3
  7.0534913662899518E-03  11  10   4   4
 -7.5155795715750161E-04  11  10   5   1
  5.1439233391106787E-04  11  10   5   2
  6.0308739330444033E-02  11  10   5   3
 -5.3816595995656632E-03  11  10   5   4
  1.0389694419509825E-01  11  10   5   5
  2.8206339877450415E-03  11  10   6   1
  3.4921967467423355E-02  11  10   6   2
 -2.2918171505770163E-02  11  10   6   3
  2.3241609168691089E-02  11  10   6   4
 -1.9842203264707765E-02  11  10   6   5
  3.7933570227447956E-02  11  10   6   6
  3.6176671800333161E-03  11  10   7   1
  4.4796513101421083E-02  11  10   7   2
  9.3341330791329100E-03  11  10   7   3
  3.1441155561267808E-02  11  10   7   4
  1.9775945442358892E-02  11  10   7   5
  2.1459150975905800E-02  11  10   7   6
  7.6690790319154822E-02  11  10   7   7
  1.2851435974909231E-01  11  10   8   8
  6.6422730068719266E-02  11  10   9   8
  1.0109431595640646E-01  11  10   9   9
  1.0871075228498252E-01  11  10  10  10
  6.3137779999124510E-02  11  10  11  10
  4.5498671683567909E-01  11  11   1   1
  2.5515448960259633E-03  11  11   2   1
  3.9102767884920331E-01  11  11   2   2
  1.9329182545504359E-03  11  11   3   1
 -1.2074513265783217E-02  11  11   3   2
  3.6454433305939443E-01  11  11   3   3
  5.4291410898801851E-04  11  11   4   1
  1.5248372262720911E-02  11  11   4   2
  3.0235162527114529E-03  11  11   4   3
  3.2946939932657382E-01  11  11   4   4
  1.7092205762114510E-03  11  11   5   1
  6.5736010825101637E-03  11  11   5   2
  4.5447374412020486E-02  11  11   5   3
 -2.3482323529496738E-02  11  11   5   4
  3.3044110553227812E-01  11  11   5   5
  6.8496178490910775E-04  11  11   6   1
 -3.6729775073102156E-05  11  11   6   2
  5.4561308419487364E-03  11  11   6   3
  3.1484910424516510E-02  11  11   6   4
 -1.1303784025950975E-02  11  11   6   5
  3.8062707882984836E-01  11  11   6   6
  1.9259348588652261E-03  11  11   7   1
  2.9217676135616710E-02  11  11   7   2
  1.1736701766804858E-02  11  11   7   3
  1.0711450617573254E-02  11  11   7   4
 -8.4646186719399101E-03  11  11   7   5
  4.6626318322282260E-03  11  11   7   6
  3.5124808276193970E-01  11  11   7   7
  3.6573273551098906E-01  11  11   8   8
  4.7203345196435154E-02  11  11   9   8
  3.4194024402771184E-01  11  11   9   9
  3.9349137942445472E-01  11  11  10  10
  1.4679436781756039E-02  11  11  11  10
  3.4077869943662292E-01  11  11  11  11
  1.4059003283913124E-02  12  10   1   1
  2.3155823657205559E-03  12  10   2   1
 -4.4461648560122392E-02  12  10   2   2
 -6.6864024697090201E-03  12  10   3   1
  6.3939344222110270E-02  12  10   3   2
  1.0686774078495708E-02  12  10   3   3
  2.6366238656998541E-03  12  10   4   1
 -2.5820526092285856E-03  12  10   4   2
 -1.1586488024535366E-02  12  10   4   3
 -3.1940525905760221E-02  12  10   4   4
 -7.8445322084382350E-03  12  10   5   1
  5.5912725033487962E-03  12  10   5   2
  4.9747440890399452E-03  12  10   5   3
  2.0182461082098757E-02  12  10   5   4
  1.7841278963975693E-02  12  10   5   5
  3.9753689229019909E-03  12  10   6   1
  3.4692508595796832E-02  12  10   6   2
 -3.1427091651593977E-02  12  10   6   3
 -1.8223718953012093E-02  12  10   6   4
 -3.2702559406162339E-03  12  10   6   5
 -1.2034118259497942E-01  12  10   6   6
  1.4481604144561042E-03  12  10   7   1
 -1.8688332047708603E-03  12  10   7   2
 -1.0256364428387066E-03  12  10   7   3
  3.7297031794113096E-03  12  10   7   4
  3.6596849319470312E-02  12  10   7   5
  1.3658436178169340E-02  12  10   7   6
 -1.9997425358428248E-02  12  10   7   7
  6.4739840299620098E-03  12  10   8   8
  3.1366352627513598E-03  12  10   9   8
  6.1087073506209720E-03  12  10   9   9
 -4.7607335196675010E-02  12  10  10  10
  2.3141187709871329E-02  12  10  11  10
 -2.3465790008247927E-02  12  10  11  11
  7.6463992548746543E-02  12  10  12  10
  7.5901837380339163E-02  12  11   1   1
  7.5390774646932456E-04  12  11   2   1
  5.6589172362312423E-02  12  11   2   2
 -1.4689411563961210E-03  12  11   3   1
  8.2475520142484115E-03  12  11   3   2
  6.3189582704574407E-02  12  11   3   3
  6.6167570697296153E-04  12  11   4   1
  5.9409685412477320E-03  12  11   4   2
 -4.4782110491591474E-03  12  11   4   3
  1.5172669695857594E-02  12  11   4   4
 -1.8073726221799116E-03  12  11   5   1
  3.3050099230766856E-03  12  11   5   2
  1.4335574523297567E-02  12  11   5   3
 -2.8483844206885762E-03  12  11   5   4
  4.8788483747526368E-02  12  11   5   5
  1.0757569938471077E-03  12  11   6   1
 -3.1588956822855806E-03  12  11   6   2
  2.5192323273163140E-03  12  11   6   3
  1.5317694216470949E-02  12  11   6   4
 -3.0302478353362080E-03  12  11   6   5
  5.0689517617841198E-02  12  11   6   6
  5.1098091899370000E-04  12  11   7   1
  9.2827109706459868E-03  12  11   7   2
  3.7684447066680519E-03  12  11   7   3
  9.3926058551839740E-03  12  11   7   4
  6.7171419633175553E-03  12  11   7   5
 -5.4364484362605381E-04  12  11   7   6
  3.9244865954510537E-02  12  11   7   7
  5.3135530757176710E-02  12  11   8   8
  1.7580614741348685E-02  12  11   9   8
  4.0900106969484110E-02  12  11   9   9
  5.7054066713432321E-02  12  11  10  10
  1.4624773958935688E-02  12  11  11  10
  1.7234775109332159E-02  12  11  11  11
 -5.7184610147716962E-03  12  11  12  10
  1.5229951912372374E-02  12  11  12  11
  5.1027457170477442E-01  12  12   1   1
 -4.0912275368242337E-04  12  12   2   1
  5.1066599341129149E-01  12  12   2   2
  1.8285292701741493E-03  12  12   3   1
 -2.0627530687021209E-02  12  12   3   2
  4.7528306283883193E-01  12  12   3   3
 -7.0669744902542020E-04  12  12   4   1
  2.4824630159805072E-02  12  12   4   2
 -1.5664031552213464E-02  12  12   4   3
  3.4254839182307795E-01  12  12   4   4
  2.0453388180239739E-03  12  12   5   1
 -4.9863687688242037E-03  12  12   5   2
  4.3605249146679619E-02  12  12   5   3
 -1.4373158192879695E-02  12  12   5   4
  4.2193813574326999E-01  12  12   5   5
 -7.2194222623228610E-04  12  12   6   1
 -3.6096196347192855E-02  12  12   6   2
  3.2350044255709830E-02  12  12   6   3
  6.8547393599622586E-02  12  12   6   4
 -8.2294977511754592E-03  12  12   6   5
  5.3351261408128348E-01  12  12   6   6
 -1.6142310492102407E-04  12  12   7   1
  2.8978712041656751E-02  12  12   7   2
  3.8997857602134645E-03  12  12   7   3
  3.8971424895928641E-02  12  12   7   4
  5.4270124982230133E-04  12  12   7   5
 -1.2701730275326374E-02  12  12   7   6
  4.2779169096710035E-01  12  12   7   7
  4.5959105421235402E-01  12  12   8   8
  4.8589019718762783E-02  12  12   9   8
  4.1818033448148917E-01  12  12   9   9
  5.2012118634179694E-01  12  12  10  10
  3.7606387819064613E-02  12  12  11  10
  3.4272138719527678E-01  12  12  11  11
 -5.9682869356068341E-02  12  12  12  10
  4.5357542205866325E-02  12  12  12  11
  4.9979213576217046E-01  12  12  12  12
  4.1544163621599067E-01  13  10   1   1
  1.2435786294863213E-02  13  10   2   1
  1.2673788926009938E-01  13  10   2   2
  3.2066117147782733E-03  13  10   3   1
  3.2139440111810268E-02  13  10   3   2
  1.2843168015066850E-01  13  10   3   3
  4.3178458353867674E-03  13  10   4   1
  4.8900377274378654E-02  13  10   4   2
 -2.5218769599981115E-02  13  10   4   3
  1.4554106530147659E-02  13  10   4   4
  1.6031951748797669E-03  13  10   5   1
  6.2144150164769891E-03  13  10   5   2
  9.2526468916748622E-02  13  10   5   3
 -1.9196651368831044E-02  13  10   5   4
  1.1049767346321344E-01  13  10   5   5
  5.5884669571749160E-03  13  10   6   1
  6.3827571840794572E-02  13  10   6   2
 -3.9678567420134411E-02  13  10   6   3
  2.2671973386974846E-02  13  10   6   4
 -3.3773648093881302E-02  13  10   6   5
  1.3130995262177102E-02  13  10   6   6
  9.3099709063384842E-03  13  10   7   1
  7.1784027088378666E-02  13  10   7   2
  1.9332003454977445E-02  13  10   7   3
  3.1840113836513487E-02  13  10   7   4
  1.4860868623775062E-02  13  10   7   5